      -----------------------------------------------------------      
     |                   =====================                   |     
     |                           x T B                           |     
     |                   =====================                   |     
     |                         S. Grimme                         |     
     |          Mulliken Center for Theoretical Chemistry        |     
     |                    University of Bonn                     |     
      -----------------------------------------------------------      

   * xtb version 6.6.1 (8d0f1dd) compiled by 'conda@1efc2f54142f' on 2023-08-01

   xtb is free software: you can redistribute it and/or modify it under
   the terms of the GNU Lesser General Public License as published by
   the Free Software Foundation, either version 3 of the License, or
   (at your option) any later version.
   
   xtb is distributed in the hope that it will be useful,
   but WITHOUT ANY WARRANTY; without even the implied warranty of
   MERCHANTABILITY or FITNESS FOR A PARTICULAR PURPOSE.  See the
   GNU Lesser General Public License for more details.
   
   Cite this work as:
   * C. Bannwarth, E. Caldeweyher, S. Ehlert, A. Hansen, P. Pracht,
     J. Seibert, S. Spicher, S. Grimme, WIREs Comput. Mol. Sci., 2020, 11,
     e01493. DOI: 10.1002/wcms.1493
   
   for GFN2-xTB:
   * C. Bannwarth, S. Ehlert and S. Grimme., J. Chem. Theory Comput., 2019,
     15, 1652-1671. DOI: 10.1021/acs.jctc.8b01176
   for GFN1-xTB:
   * S. Grimme, C. Bannwarth, P. Shushkov, J. Chem. Theory Comput., 2017,
     13, 1989-2009. DOI: 10.1021/acs.jctc.7b00118
   for GFN0-xTB:
   * P. Pracht, E. Caldeweyher, S. Ehlert, S. Grimme, ChemRxiv, 2019, preprint.
     DOI: 10.26434/chemrxiv.8326202.v1
   for GFN-FF:
   * S. Spicher and S. Grimme, Angew. Chem. Int. Ed., 2020, 59, 15665-15673.
     DOI: 10.1002/anie.202004239
   
   for ALPB and GBSA implicit solvation:
   * S. Ehlert, M. Stahn, S. Spicher, S. Grimme, J. Chem. Theory Comput.,
     2021, 17, 4250-4261. DOI: 10.1021/acs.jctc.1c00471
   
   for DFT-D4:
   * E. Caldeweyher, C. Bannwarth and S. Grimme, J. Chem. Phys., 2017,
     147, 034112. DOI: 10.1063/1.4993215
   * E. Caldeweyher, S. Ehlert, A. Hansen, H. Neugebauer, S. Spicher,
     C. Bannwarth and S. Grimme, J. Chem. Phys., 2019, 150, 154122.
     DOI: 10.1063/1.5090222
   * E. Caldeweyher, J.-M. Mewes, S. Ehlert and S. Grimme, Phys. Chem. Chem. Phys.
     2020, 22, 8499-8512. DOI: 10.1039/D0CP00502A
   
   for sTDA-xTB:
   * S. Grimme and C. Bannwarth, J. Chem. Phys., 2016, 145, 054103.
     DOI: 10.1063/1.4959605
   
   in the mass-spec context:
   * V. Asgeirsson, C. Bauer and S. Grimme, Chem. Sci., 2017, 8, 4879.
     DOI: 10.1039/c7sc00601b
   * J. Koopman and S. Grimme, ACS Omega 2019, 4, 12, 15120-15133.
     DOI: 10.1021/acsomega.9b02011
   
   for metadynamics refer to:
   * S. Grimme, J. Chem. Theory Comput., 2019, 155, 2847-2862
     DOI: 10.1021/acs.jctc.9b00143
   
   for SPH calculations refer to:
   * S. Spicher and S. Grimme, J. Chem. Theory Comput., 2021, 17, 1701-1714
     DOI: 10.1021/acs.jctc.0c01306
   
   with help from (in alphabetical order)
   P. Atkinson, C. Bannwarth, F. Bohle, G. Brandenburg, E. Caldeweyher
   M. Checinski, S. Dohm, S. Ehlert, S. Ehrlich, I. Gerasimov, C. Hölzer
   A. Katbashev, J. Koopman, C. Lavigne, S. Lehtola, F. März, M. Müller,
   F. Musil, H. Neugebauer, J. Pisarek, C. Plett, P. Pracht, F. Pultar,
   J. Seibert, P. Shushkov, S. Spicher, M. Stahn, M. Steiner, T. Strunk,
   J. Stückrath, T. Rose, and J. Unsleber
   
 * started run on 2023/12/04 at 21:59:51.509     

           -------------------------------------------------
          |                Calculation Setup                |
           -------------------------------------------------

          program call               : xtb ../../structures/01-initial/subsystem.xyz --opt loose --gfn 2 --alpb water --input opt.in
          coordinate file            : ../../structures/01-initial/subsystem.xyz
          omp threads                :                    24

   ID    Z sym.   atoms
    1    7 N      1, 36, 37, 45, 56, 77, 86, 91, 101, 109, 113, 118, 127,
                  132, 145, 148, 151, 156, 167, 181, 191, 202, 212, 231, 250,
                  265, 285, 301
    2    1 H      2, 4, 6, 7, 9, 11-13, 15-17, 29-33, 41, 42, 46, 47, 50-53,
                  55, 57, 59, 61, 62, 65, 67, 70, 72, 74, 78, 80, 82, 83, 87,
                  88, 92, 94, 96, 97, 102, 104, 106, 107, 110, 112, 115, 119,
                  121, 123, 124, 128, 129, 133, 135, 137, 138, 140, 141, 143,
                  144, 146, 149, 150, 152, 153, 157, 159, 161, 162, 164, 168,
                  170, 172, 174-176, 178, 182, 184, 186, 187, 192, 194, 196,
                  197, 199, 203, 205, 207-209, 213, 215, 217, 218, 220,
                  222-224, 226-228, 232, 234, 236, 237, 239, 241-243,
                  245-247, 251, 253, 255, 256, 258, 259, 266, 268, 270, 271,
                  274, 276, 278, 280, 282, 286, 288, 290, 292-294, 296-298,
                  302, 304, 306, 308-310, 312
    3    6 C      3, 5, 8, 10, 14, 18, 20-28, 38-40, 43, 48, 49, 58, 60, 63,
                  64, 66, 68, 71, 73, 75, 79, 81, 84, 89, 93, 95, 99, 103,
                  105, 108, 111, 114, 116, 120, 122, 125, 130, 134, 136, 139,
                  142, 147, 154, 158, 160, 165, 169, 171, 173, 179, 183, 185,
                  189, 193, 195, 200, 204, 206, 210, 214, 216, 219, 221, 225,
                  229, 233, 235, 238, 240, 244, 248, 252, 254, 257, 260, 263,
                  267, 269, 272, 273, 275, 277, 279, 281, 283, 287, 289, 291,
                  295, 299, 303, 305, 307, 313
    4    8 O      19, 34, 35, 44, 54, 69, 76, 85, 90, 100, 117, 126, 131,
                  155, 163, 166, 177, 180, 190, 198, 201, 211, 230, 249, 261,
                  262, 264, 284, 300, 311, 314
    5   16 S      98, 188

molecular fragmentation (1/2 indicates fragments):
111111111111111111122222222222222222222222222222222222222222222222222222
222222222222222222222222222222222222222222222222222222222222222222222222
222222222222222222222222222222222222222222222222222222222222222222222222
222222222222222222222222222222222222222222222222222222222222222222222222
22222222222222222222222222
# atoms in fragment 1/2:    19   295
 fragment masses (1/2) :      113.16     2238.44
CMA distance (Bohr)    :  17.939
constraining FC (au)   :  0.5000

           -------------------------------------------------
          |                 G F N 2 - x T B                 |
           -------------------------------------------------

        Reference                      10.1021/acs.jctc.8b01176
      * Hamiltonian:
        H0-scaling (s, p, d)           1.850000    2.230000    2.230000
        zeta-weighting                 0.500000
      * Dispersion:
        s8                             2.700000
        a1                             0.520000
        a2                             5.000000
        s9                             5.000000
      * Repulsion:
        kExp                           1.500000    1.000000
        rExp                           1.000000
      * Coulomb:
        alpha                          2.000000
        third order                    shell-resolved
        anisotropic                    true
        a3                             3.000000
        a5                             4.000000
        cn-shift                       1.200000
        cn-exp                         4.000000
        max-rad                        5.000000

      * Solvation model:               ALPB
        Solvent                        water
        Parameter file                 internal GFN2-xTB/ALPB
        Dielectric constant                8.0200E+01
        Reference state                gsolv [1 M gas/solution]
        Free energy shift                  1.0808E-03 Eh       6.7819E-01 kcal/mol
        Temperature                        2.9815E+02 K
        Density                            1.0000E+00 kg/L
        Solvent mass                       1.8000E+01 g/mol
        Interaction kernel             P16
        Born radius scaling (c1)           1.4744E+00
        Born radii integrator          GBOBC
        Born offset                        0.0000E+00 a0       0.0000E+00 AA
        H-bond correction              true
        Ion screening                  false
        Surface tension                    1.0000E-05 Eh       1.5569E+01 dyn/cm
        Grid points                               230 per atom

          ...................................................
          :                      SETUP                      :
          :.................................................:
          :  # basis functions                 821          :
          :  # atomic orbitals                 819          :
          :  # shells                          481          :
          :  # electrons                       903          :
          :  max. iterations                   250          :
          :  Hamiltonian                  GFN2-xTB          :
          :  restarted?                      false          :
          :  GBSA solvation                   true          :
          :  PC potential                    false          :
          :  electronic temp.          300.0000000     K    :
          :  accuracy                    1.0000000          :
          :  -> integral cutoff          0.2500000E+02      :
          :  -> integral neglect         0.1000000E-07      :
          :  -> SCF convergence          0.1000000E-05 Eh   :
          :  -> wf. convergence          0.1000000E-03 e    :
          :  Broyden damping             0.4000000          :
          ...................................................

 iter      E             dE          RMSdq      gap      omega  full diag
   1   -516.9873302 -0.516987E+03  0.470E+00    0.04       0.0  T
   2   -509.2645856  0.772274E+01  0.604E+00    0.13       1.0  T
   3   -517.6390796 -0.837449E+01  0.304E+00    0.16       1.0  T
   4   -516.5820422  0.105704E+01  0.295E+00    0.14       1.0  T
   5   -518.2353448 -0.165330E+01  0.196E+00    0.05       1.0  T
   6   -517.4211294  0.814215E+00  0.241E+00    0.01       1.0  T
   7   -518.3587549 -0.937625E+00  0.175E+00    0.02       1.0  T
   8   -518.4424229 -0.836680E-01  0.171E+00    0.05       1.0  T
   9   -518.5030874 -0.606645E-01  0.148E+00    0.06       1.0  T
  10   -518.6346026 -0.131515E+00  0.132E+00    0.01       1.0  T
  11   -518.7019500 -0.673474E-01  0.131E+00    0.02       1.0  T
  12   -518.8029940 -0.101044E+00  0.113E+00    0.01       1.0  T
  13   -518.4724873  0.330507E+00  0.151E+00    0.00       1.0  T
  14   -518.6989126 -0.226425E+00  0.140E+00    0.02       1.0  T
  15   -518.4347277  0.264185E+00  0.160E+00    0.07       1.0  T
  16   -518.5905173 -0.155790E+00  0.137E+00    0.00       1.0  T
  17   -518.6323251 -0.418078E-01  0.144E+00    0.02       1.0  T
  18   -518.6845654 -0.522403E-01  0.133E+00    0.02       1.0  T
  19   -518.4982489  0.186317E+00  0.154E+00    0.01       1.0  T
  20   -518.8282855 -0.330037E+00  0.104E+00    0.01       1.0  T
  21   -518.7256593  0.102626E+00  0.117E+00    0.01       1.0  T
  22   -518.9111363 -0.185477E+00  0.964E-01    0.00       1.0  T
  23   -519.0993255 -0.188189E+00  0.520E-01    0.01       1.0  T
  24   -519.1096647 -0.103392E-01  0.524E-01    0.01       1.0  T
  25   -519.1463384 -0.366737E-01  0.371E-01    0.00       1.0  T
  26   -519.1755604 -0.292220E-01  0.237E-01    0.00       1.0  T
  27   -519.1642966  0.112638E-01  0.283E-01    0.01       1.0  T
  28   -519.1822612 -0.179646E-01  0.198E-01    0.00       1.0  T
  29   -519.1719487  0.103125E-01  0.241E-01    0.01       1.0  T
  30   -519.1871341 -0.151854E-01  0.120E-01    0.00       1.0  T
  31   -519.1856030  0.153114E-02  0.115E-01    0.00       1.0  T
  32   -519.1901338 -0.453082E-02  0.443E-02    0.00       1.0  T
  33   -519.1897784  0.355438E-03  0.518E-02    0.00       1.0  T
  34   -519.1901391 -0.360738E-03  0.436E-02    0.00       1.0  T
  35   -519.1905885 -0.449399E-03  0.227E-02    0.00       1.0  T
  36   -519.1905451  0.433932E-04  0.260E-02    0.00       1.0  T
  37   -519.1904536  0.915686E-04  0.299E-02    0.00       1.0  T
  38   -519.1907090 -0.255446E-03  0.131E-02    0.00       1.0  T
  39   -519.1907252 -0.161820E-04  0.125E-02    0.00       1.0  T
  40   -519.1907398 -0.146053E-04  0.907E-03    0.00       1.0  T
  41   -519.1907648 -0.250324E-04  0.367E-03    0.00       1.5  T
  42   -519.1907683 -0.350375E-05  0.177E-03    0.00       3.2  T
  43   -519.1907673  0.994553E-06  0.229E-03    0.00       2.5  T
  44   -519.1907689 -0.154772E-05  0.951E-04    0.00       5.9  T
  45   -519.1907690 -0.124525E-06  0.674E-04    0.00       8.4  T
  46   -519.1907691 -0.775256E-07  0.437E-04    0.00      12.9  T

   *** convergence criteria satisfied after 46 iterations ***

         #    Occupation            Energy/Eh            Energy/eV
      -------------------------------------------------------------
         1        2.0000           -0.7745015             -21.0753
       ...           ...                  ...                  ...
       446        1.9096           -0.3729114             -10.1474
       447        1.8565           -0.3724447             -10.1347
       448        1.5807           -0.3712682             -10.1027
       449        1.1110           -0.3702103             -10.0739
       450        1.0533           -0.3700988             -10.0709
       451        0.9946           -0.3699860             -10.0678
       452        0.9229           -0.3698481             -10.0641 (HOMO)
       453        0.8657           -0.3697371             -10.0611 (LUMO)
       454        0.7938           -0.3695950             -10.0572
       455        0.7813           -0.3695697             -10.0565
       456        0.7348           -0.3694750             -10.0539
       457        0.5512           -0.3690697             -10.0429
       ...           ...                  ...                  ...
       819                          0.7425333              20.2054
      -------------------------------------------------------------
                  HL-Gap            0.0001110 Eh            0.0030 eV
             Fermi-level           -0.3699964 Eh          -10.0681 eV

 SCC (total)                   0 d,  0 h,  0 min, 12.486 sec
 SCC setup                      ...        0 min,  0.098 sec (  0.785%)
 Dispersion                     ...        0 min,  0.041 sec (  0.325%)
 classical contributions        ...        0 min,  0.032 sec (  0.255%)
 integral evaluation            ...        0 min,  0.072 sec (  0.580%)
 iterations                     ...        0 min, 11.825 sec ( 94.705%)
 molecular gradient             ...        0 min,  0.366 sec (  2.930%)
 printout                       ...        0 min,  0.052 sec (  0.419%)

         :::::::::::::::::::::::::::::::::::::::::::::::::::::
         ::                     SUMMARY                     ::
         :::::::::::::::::::::::::::::::::::::::::::::::::::::
         :: total energy            -511.612753156004 Eh    ::
         :: total w/o Gsasa/hb      -511.559432135969 Eh    ::
         :: gradient norm              1.067736180979 Eh/a0 ::
         :: HOMO-LUMO gap              0.003021431339 eV    ::
         ::.................................................::
         :: SCC energy              -519.190769082789 Eh    ::
         :: -> isotropic ES            1.523121415297 Eh    ::
         :: -> anisotropic ES         -0.056488915052 Eh    ::
         :: -> anisotropic XC          0.160031523462 Eh    ::
         :: -> dispersion             -0.420351406308 Eh    ::
         :: -> Gsolv                  -0.391352270632 Eh    ::
         ::    -> Gelec               -0.338031250597 Eh    ::
         ::    -> Gsasa                0.003005506614 Eh    ::
         ::    -> Ghb                 -0.057407286347 Eh    ::
         ::    -> Gshift               0.001080759698 Eh    ::
         :: repulsion energy           7.542762153250 Eh    ::
         :: add. restraining           0.000000000000 Eh    ::
         :: total charge               0.000000000003 e     ::
         :::::::::::::::::::::::::::::::::::::::::::::::::::::

      ----------------------------------------------------------- 
     |                   =====================                   |
     |                        A N C O P T                        |
     |                   =====================                   |
     |               Approximate Normal Coordinate               |
     |                Rational Function Optimizer                |
      ----------------------------------------------------------- 

          ...................................................
          :                      SETUP                      :
          :.................................................:
          :   optimization level             loose          :
          :   max. optcycles                   628          :
          :   ANC micro-cycles                  20          :
          :   degrees of freedom               936          :
          :.................................................:
          :   RF solver                   davidson          :
          :   write xtbopt.log                true          :
          :   linear?                        false          :
          :   energy convergence         0.5000000E-04 Eh   :
          :   grad. convergence          0.4000000E-02 Eh/α :
          :   maxmium RF displ.          1.0000000          :
          :   Hlow (freq-cutoff)         0.1000000E-01      :
          :   Hmax (freq-cutoff)         5.0000000          :
          :   S6 in model hess.         20.0000000          :
          ...................................................

generating ANC from model Hessian ...
Using Lindh-Hessian (1995)
 Shifting diagonal of input Hessian by    1.7376943349124013E-004
 Lowest  eigenvalues of input Hessian
    0.000000    0.000000    0.000000    0.000000    0.000000    0.000000
    0.010000    0.010397    0.011410    0.012255    0.012421    0.012792
    0.012965    0.012975    0.012999    0.013166    0.013252    0.013327
 Highest eigenvalues
    2.865079    2.878549    2.924363    2.947839    2.966010    3.055276


........................................................................
.............................. CYCLE    1 ..............................
........................................................................

 iter      E             dE          RMSdq      gap      omega  full diag
   1   -519.1907691 -0.519191E+03  0.167E-04    0.00       0.0  T
   2   -519.1907581  0.110762E-04  0.554E-03    0.00       1.0  T
   3   -519.1907690 -0.109071E-04  0.834E-04    0.00       6.8  T
   4   -519.1907691 -0.969841E-07  0.519E-04    0.00      10.9  T
   5   -519.1907691 -0.364857E-07  0.379E-04    0.00      14.9  T
     SCC iter.                  ...        0 min,  1.323 sec
     gradient                   ...        0 min,  0.404 sec
 * total energy  :  -511.6127532 Eh     change       -0.2650143E-07 Eh
   gradient norm :     1.0677350 Eh/α   predicted     0.0000000E+00 (-100.00%)
   displ. norm   :     0.6637518 α      lambda       -0.6531631E+00
   maximum displ.:     0.1427583 α      in ANC's #542, #556, #540, ...

........................................................................
.............................. CYCLE    2 ..............................
........................................................................

 iter      E             dE          RMSdq      gap      omega  full diag
   1   -518.6335737 -0.518634E+03  0.112E+00    0.00       0.0  T
   2   -511.2539961  0.737958E+01  0.514E+00    0.08       1.0  T
   3   -517.6609436 -0.640695E+01  0.200E+00    0.01       1.0  T
   4   -518.0262771 -0.365333E+00  0.179E+00    0.01       1.0  T
   5   -518.4514708 -0.425194E+00  0.129E+00    0.02       1.0  T
   6   -518.5013804 -0.499097E-01  0.121E+00    0.02       1.0  T
   7   -518.5538752 -0.524948E-01  0.116E+00    0.02       1.0  T
   8   -518.7562242 -0.202349E+00  0.894E-01    0.03       1.0  T
   9   -518.7157243  0.404999E-01  0.934E-01    0.01       1.0  T
  10   -518.8188050 -0.103081E+00  0.734E-01    0.01       1.0  T
  11   -518.9787396 -0.159935E+00  0.313E-01    0.00       1.0  T
  12   -518.8967289  0.820108E-01  0.592E-01    0.00       1.0  T
  13   -518.8955702  0.115870E-02  0.606E-01    0.01       1.0  T
  14   -518.8522120  0.433582E-01  0.723E-01    0.01       1.0  T
  15   -518.8998895 -0.476775E-01  0.568E-01    0.01       1.0  T
  16   -518.8908726  0.901683E-02  0.620E-01    0.00       1.0  T
  17   -518.9816587 -0.907860E-01  0.299E-01    0.00       1.0  T
  18   -518.9745029  0.715579E-02  0.347E-01    0.02       1.0  T
  19   -519.0017873 -0.272844E-01  0.168E-01    0.01       1.0  T
  20   -519.0089868 -0.719948E-02  0.619E-02    0.01       1.0  T
  21   -519.0092106 -0.223812E-03  0.580E-02    0.01       1.0  T
  22   -519.0096263 -0.415686E-03  0.413E-02    0.01       1.0  T
  23   -519.0098238 -0.197509E-03  0.338E-02    0.01       1.0  T
  24   -519.0100166 -0.192800E-03  0.238E-02    0.01       1.0  T
  25   -519.0101661 -0.149469E-03  0.127E-02    0.01       1.0  T
  26   -519.0101914 -0.253149E-04  0.819E-03    0.01       1.0  T
  27   -519.0101961 -0.475086E-05  0.744E-03    0.01       1.0  T
  28   -519.0102043 -0.812781E-05  0.551E-03    0.01       1.0  T
  29   -519.0102123 -0.803051E-05  0.189E-03    0.01       3.0  T
  30   -519.0102118  0.504582E-06  0.208E-03    0.01       2.7  T
  31   -519.0102130 -0.120317E-05  0.933E-04    0.01       6.1  T
  32   -519.0102131 -0.115200E-06  0.666E-04    0.01       8.5  T
  33   -519.0102132 -0.916317E-07  0.444E-04    0.01      12.7  T
     SCC iter.                  ...        0 min,  9.525 sec
     gradient                   ...        0 min,  0.384 sec
 * total energy  :  -512.1046090 Eh     change       -0.4918558E+00 Eh
   gradient norm :     0.5294618 Eh/α   predicted    -0.4704698E+00 (  -4.35%)
   displ. norm   :     0.6218137 α      lambda       -0.2932043E+00
   maximum displ.:     0.1152402 α      in ANC's #542, #556, #540, ...

........................................................................
.............................. CYCLE    3 ..............................
........................................................................

 iter      E             dE          RMSdq      gap      omega  full diag
   1   -518.5402868 -0.518540E+03  0.104E+00    0.00       0.0  T
   2   -511.1447226  0.739556E+01  0.519E+00    0.02       1.0  T
   3   -517.4929682 -0.634825E+01  0.199E+00    0.00       1.0  T
   4   -518.1275798 -0.634612E+00  0.170E+00    0.02       1.0  T
   5   -518.1076184  0.199614E-01  0.154E+00    0.10       1.0  T
   6   -518.5289332 -0.421315E+00  0.986E-01    0.01       1.0  T
   7   -518.4561698  0.727634E-01  0.107E+00    0.00       1.0  T
   8   -518.6461400 -0.189970E+00  0.790E-01    0.01       1.0  T
   9   -518.6982286 -0.520886E-01  0.683E-01    0.01       1.0  T
  10   -518.8078236 -0.109595E+00  0.407E-01    0.00       1.0  T
  11   -518.5924784  0.215345E+00  0.885E-01    0.01       1.0  T
  12   -518.7856188 -0.193140E+00  0.581E-01    0.00       1.0  T
  13   -518.8297752 -0.441564E-01  0.296E-01    0.00       1.0  T
  14   -518.7565093  0.732659E-01  0.532E-01    0.01       1.0  T
  15   -518.8385354 -0.820261E-01  0.247E-01    0.01       1.0  T
  16   -518.6538646  0.184671E+00  0.766E-01    0.01       1.0  T
  17   -518.8144725 -0.160608E+00  0.364E-01    0.00       1.0  T
  18   -518.8315598 -0.170873E-01  0.282E-01    0.00       1.0  T
  19   -518.8479837 -0.164239E-01  0.169E-01    0.01       1.0  T
  20   -518.8549109 -0.692715E-02  0.834E-02    0.01       1.0  T
  21   -518.8554909 -0.579983E-03  0.757E-02    0.01       1.0  T
  22   -518.8561477 -0.656816E-03  0.574E-02    0.01       1.0  T
  23   -518.8569975 -0.849817E-03  0.226E-02    0.01       1.0  T
  24   -518.8570829 -0.853777E-04  0.157E-02    0.01       1.0  T
  25   -518.8571022 -0.192965E-04  0.140E-02    0.01       1.0  T
  26   -518.8571289 -0.267776E-04  0.102E-02    0.01       1.0  T
  27   -518.8571506 -0.216265E-04  0.638E-03    0.01       1.0  T
  28   -518.8571506 -0.592934E-07  0.658E-03    0.01       1.0  T
  29   -518.8571633 -0.126310E-04  0.225E-03    0.01       2.5  T
  30   -518.8571637 -0.493129E-06  0.169E-03    0.01       3.3  T
  31   -518.8571640 -0.220861E-06  0.148E-03    0.01       3.8  T
  32   -518.8571646 -0.597182E-06  0.702E-04    0.01       8.0  T
  33   -518.8571646 -0.723263E-07  0.500E-04    0.01      11.3  T
     SCC iter.                  ...        0 min,  8.044 sec
     gradient                   ...        0 min,  0.377 sec
 * total energy  :  -512.3193887 Eh     change       -0.2147797E+00 Eh
   gradient norm :     0.2284132 Eh/α   predicted    -0.2032896E+00 (  -5.35%)
   displ. norm   :     0.6153086 α      lambda       -0.1215785E+00
   maximum displ.:     0.1064312 α      in ANC's #181, #542, #232, ...

........................................................................
.............................. CYCLE    4 ..............................
........................................................................

 iter      E             dE          RMSdq      gap      omega  full diag
   1   -518.4946772 -0.518495E+03  0.818E-01    0.00       0.0  T
   2   -512.8703839  0.562429E+01  0.467E+00    0.03       1.0  T
   3   -517.6941915 -0.482381E+01  0.175E+00    0.03       1.0  T
   4   -517.7363189 -0.421274E-01  0.229E+00    0.02       1.0  T
   5   -518.1588021 -0.422483E+00  0.146E+00    0.02       1.0  T
   6   -518.2307319 -0.719297E-01  0.117E+00    0.01       1.0  T
   7   -518.4535383 -0.222806E+00  0.863E-01    0.00       1.0  T
   8   -518.5845081 -0.130970E+00  0.565E-01    0.01       1.0  T
   9   -518.5833221  0.118603E-02  0.574E-01    0.02       1.0  T
  10   -518.5260360  0.572861E-01  0.722E-01    0.02       1.0  T
  11   -518.6433890 -0.117353E+00  0.397E-01    0.00       1.0  T
  12   -518.5668849  0.765042E-01  0.620E-01    0.01       1.0  T
  13   -518.5711396 -0.425471E-02  0.648E-01    0.00       1.0  T
  14   -518.6501669 -0.790273E-01  0.360E-01    0.01       1.0  T
  15   -518.6298111  0.203558E-01  0.436E-01    0.01       1.0  T
  16   -518.6863402 -0.565291E-01  0.198E-01    0.01       1.0  T
  17   -518.6920635 -0.572334E-02  0.127E-01    0.01       1.0  T
  18   -518.6942942 -0.223066E-02  0.876E-02    0.01       1.0  T
  19   -518.6954830 -0.118877E-02  0.633E-02    0.01       1.0  T
  20   -518.6961909 -0.707932E-03  0.393E-02    0.01       1.0  T
  21   -518.6963918 -0.200913E-03  0.278E-02    0.01       1.0  T
  22   -518.6965423 -0.150452E-03  0.127E-02    0.01       1.0  T
  23   -518.6965727 -0.304294E-04  0.855E-03    0.01       1.0  T
  24   -518.6965848 -0.121216E-04  0.423E-03    0.01       1.3  T
  25   -518.6965874 -0.254774E-05  0.282E-03    0.01       2.0  T
  26   -518.6965872  0.191424E-06  0.258E-03    0.01       2.2  T
  27   -518.6965885 -0.135833E-05  0.191E-03    0.01       3.0  T
  28   -518.6965884  0.107465E-06  0.196E-03    0.01       2.9  T
  29   -518.6965894 -0.978146E-06  0.712E-04    0.01       7.9  T
  30   -518.6965894 -0.200599E-07  0.600E-04    0.01       9.4  T
     SCC iter.                  ...        0 min,  8.493 sec
     gradient                   ...        0 min,  0.387 sec
 * total energy  :  -512.4069284 Eh     change       -0.8753969E-01 Eh
   gradient norm :     0.0937568 Eh/α   predicted    -0.8380442E-01 (  -4.27%)
   displ. norm   :     0.6247890 α      lambda       -0.4748917E-01
   maximum displ.:     0.1684252 α      in ANC's #2, #181, #98, ...

........................................................................
.............................. CYCLE    5 ..............................
........................................................................

 iter      E             dE          RMSdq      gap      omega  full diag
   1   -518.5273366 -0.518527E+03  0.494E-01    0.01       0.0  T
   2   -515.8299610  0.269738E+01  0.334E+00    0.01       1.0  T
   3   -517.9467128 -0.211675E+01  0.139E+00    0.02       1.0  T
   4   -517.7956908  0.151022E+00  0.191E+00    0.01       1.0  T
   5   -518.1295647 -0.333874E+00  0.131E+00    0.01       1.0  T
   6   -518.3841907 -0.254626E+00  0.780E-01    0.02       1.0  T
   7   -518.5240627 -0.139872E+00  0.459E-01    0.00       1.0  T
   8   -518.4455005  0.785622E-01  0.679E-01    0.01       1.0  T
   9   -518.4669335 -0.214330E-01  0.616E-01    0.00       1.0  T
  10   -518.5500964 -0.831629E-01  0.430E-01    0.01       1.0  T
  11   -518.5288587  0.212376E-01  0.431E-01    0.01       1.0  T
  12   -518.5520486 -0.231898E-01  0.359E-01    0.00       1.0  T
  13   -518.5934033 -0.413548E-01  0.137E-01    0.00       1.0  T
  14   -518.5816054  0.117980E-01  0.225E-01    0.01       1.0  T
  15   -518.5879184 -0.631306E-02  0.180E-01    0.00       1.0  T
  16   -518.5914616 -0.354321E-02  0.146E-01    0.00       1.0  T
  17   -518.5984201 -0.695849E-02  0.463E-02    0.01       1.0  T
  18   -518.5986005 -0.180404E-03  0.380E-02    0.01       1.0  T
  19   -518.5989218 -0.321259E-03  0.251E-02    0.01       1.0  T
  20   -518.5990121 -0.903498E-04  0.184E-02    0.01       1.0  T
  21   -518.5990848 -0.727094E-04  0.103E-02    0.01       1.0  T
  22   -518.5991117 -0.268320E-04  0.505E-03    0.01       1.1  T
  23   -518.5991116  0.617977E-07  0.499E-03    0.01       1.1  T
  24   -518.5991188 -0.716084E-05  0.214E-03    0.01       2.6  T
  25   -518.5991192 -0.387565E-06  0.181E-03    0.01       3.1  T
  26   -518.5991200 -0.813853E-06  0.922E-04    0.01       6.1  T
  27   -518.5991202 -0.192603E-06  0.610E-04    0.01       9.3  T
     SCC iter.                  ...        0 min,  7.115 sec
     gradient                   ...        0 min,  0.362 sec
 * total energy  :  -512.4413093 Eh     change       -0.3438085E-01 Eh
   gradient norm :     0.0463621 Eh/α   predicted    -0.3301368E-01 (  -3.98%)
   displ. norm   :     0.5994558 α      lambda       -0.1978651E-01
   maximum displ.:     0.1923383 α      in ANC's #2, #9, #77, ...

........................................................................
.............................. CYCLE    6 ..............................
........................................................................

 iter      E             dE          RMSdq      gap      omega  full diag
   1   -518.5321698 -0.518532E+03  0.332E-01    0.02       0.0  T
   2   -517.2873084  0.124486E+01  0.234E+00    0.05       1.0  T
   3   -517.8323110 -0.545003E+00  0.148E+00    0.07       1.0  T
   4   -518.1265350 -0.294224E+00  0.118E+00    0.05       1.0  T
   5   -518.3682359 -0.241701E+00  0.795E-01    0.01       1.0  T
   6   -518.3680155  0.220404E-03  0.761E-01    0.00       1.0  T
   7   -518.5285564 -0.160541E+00  0.314E-01    0.01       1.0  T
   8   -518.2401602  0.288396E+00  0.108E+00    0.01       1.0  T
   9   -518.5149152 -0.274755E+00  0.394E-01    0.00       1.0  T
  10   -518.5300232 -0.151080E-01  0.301E-01    0.01       1.0  T
  11   -518.4965477  0.334755E-01  0.425E-01    0.00       1.0  T
  12   -518.5475304 -0.509827E-01  0.212E-01    0.01       1.0  T
  13   -518.5489272 -0.139677E-02  0.198E-01    0.01       1.0  T
  14   -518.5476207  0.130651E-02  0.207E-01    0.00       1.0  T
  15   -518.5489729 -0.135225E-02  0.195E-01    0.01       1.0  T
  16   -518.5612470 -0.122741E-01  0.626E-02    0.01       1.0  T
  17   -518.5615545 -0.307465E-03  0.525E-02    0.01       1.0  T
  18   -518.5623918 -0.837328E-03  0.192E-02    0.01       1.0  T
  19   -518.5624834 -0.916562E-04  0.104E-02    0.01       1.0  T
  20   -518.5625003 -0.168888E-04  0.780E-03    0.01       1.0  T
  21   -518.5625141 -0.137456E-04  0.452E-03    0.01       1.2  T
  22   -518.5625193 -0.524515E-05  0.241E-03    0.01       2.3  T
  23   -518.5625207 -0.141416E-05  0.145E-03    0.01       3.9  T
  24   -518.5625209 -0.138031E-06  0.126E-03    0.01       4.5  T
  25   -518.5625210 -0.105857E-06  0.114E-03    0.01       4.9  T
  26   -518.5625214 -0.417718E-06  0.321E-04    0.01      17.6  T
  27   -518.5625214  0.339653E-07  0.417E-04    0.01      13.5  T
     SCC iter.                  ...        0 min,  7.773 sec
     gradient                   ...        0 min,  0.372 sec
 * total energy  :  -512.4556927 Eh     change       -0.1438340E-01 Eh
   gradient norm :     0.0389408 Eh/α   predicted    -0.1344864E-01 (  -6.50%)
   displ. norm   :     0.5434964 α      lambda       -0.9349774E-02
   maximum displ.:     0.1560498 α      in ANC's #9, #6, #4, ...

........................................................................
.............................. CYCLE    7 ..............................
........................................................................

 iter      E             dE          RMSdq      gap      omega  full diag
   1   -518.5418975 -0.518542E+03  0.255E-01    0.01       0.0  T
   2   -517.4708386  0.107106E+01  0.206E+00    0.06       1.0  T
   3   -517.9877974 -0.516959E+00  0.132E+00    0.07       1.0  T
   4   -518.3503231 -0.362526E+00  0.786E-01    0.01       1.0  T
   5   -518.4074751 -0.571520E-01  0.728E-01    0.01       1.0  T
   6   -518.2037005  0.203775E+00  0.999E-01    0.00       1.0  T
   7   -518.5014854 -0.297785E+00  0.410E-01    0.03       1.0  T
   8   -518.4613324  0.401530E-01  0.551E-01    0.01       1.0  T
   9   -518.5131950 -0.518626E-01  0.479E-01    0.00       1.0  T
  10   -518.4665425  0.466525E-01  0.499E-01    0.01       1.0  T
  11   -518.5431538 -0.766113E-01  0.201E-01    0.00       1.0  T
  12   -518.5357352  0.741858E-02  0.248E-01    0.00       1.0  T
  13   -518.5467672 -0.110320E-01  0.175E-01    0.00       1.0  T
  14   -518.5364539  0.103133E-01  0.244E-01    0.01       1.0  T
  15   -518.5562662 -0.198123E-01  0.754E-02    0.01       1.0  T
  16   -518.5571728 -0.906644E-03  0.450E-02    0.01       1.0  T
  17   -518.5577427 -0.569841E-03  0.137E-02    0.01       1.0  T
  18   -518.5577749 -0.321928E-04  0.998E-03    0.01       1.0  T
  19   -518.5577970 -0.221474E-04  0.569E-03    0.01       1.0  T
  20   -518.5578052 -0.816205E-05  0.288E-03    0.01       2.0  T
  21   -518.5577994  0.579640E-05  0.470E-03    0.01       1.2  T
  22   -518.5578060 -0.665421E-05  0.210E-03    0.01       2.7  T
  23   -518.5578073 -0.126275E-05  0.996E-04    0.01       5.7  T
  24   -518.5578073  0.459498E-07  0.108E-03    0.01       5.2  T
  25   -518.5578074 -0.943350E-07  0.845E-04    0.01       6.7  T
  26   -518.5578075 -0.154166E-06  0.571E-04    0.01       9.9  T
     SCC iter.                  ...        0 min,  7.079 sec
     gradient                   ...        0 min,  0.388 sec
 * total energy  :  -512.4623062 Eh     change       -0.6613521E-02 Eh
   gradient norm :     0.0320575 Eh/α   predicted    -0.6055803E-02 (  -8.43%)
   displ. norm   :     0.6308231 α      lambda       -0.6816664E-02
   maximum displ.:     0.3770861 α      in ANC's #2, #9, #6, ...

........................................................................
.............................. CYCLE    8 ..............................
........................................................................

 iter      E             dE          RMSdq      gap      omega  full diag
   1   -518.5531015 -0.518553E+03  0.240E-01    0.01       0.0  T
   2   -517.9291557  0.623946E+00  0.141E+00    0.03       1.0  T
   3   -518.0684305 -0.139275E+00  0.123E+00    0.03       1.0  T
   4   -518.2725402 -0.204110E+00  0.914E-01    0.01       1.0  T
   5   -518.4064939 -0.133954E+00  0.668E-01    0.00       1.0  T
   6   -518.3659607  0.405332E-01  0.736E-01    0.01       1.0  T
   7   -518.3490228  0.169379E-01  0.816E-01    0.01       1.0  T
   8   -518.4854328 -0.136410E+00  0.489E-01    0.00       1.0  T
   9   -518.4269466  0.584863E-01  0.645E-01    0.02       1.0  T
  10   -518.5357346 -0.108788E+00  0.334E-01    0.00       1.0  T
  11   -518.5090156  0.267190E-01  0.399E-01    0.00       1.0  T
  12   -518.5453396 -0.363240E-01  0.248E-01    0.01       1.0  T
  13   -518.5442658  0.107385E-02  0.247E-01    0.00       1.0  T
  14   -518.5548632 -0.105974E-01  0.178E-01    0.02       1.0  T
  15   -518.5634547 -0.859159E-02  0.804E-02    0.01       1.0  T
  16   -518.5639049 -0.450132E-03  0.634E-02    0.01       1.0  T
  17   -518.5651611 -0.125622E-02  0.210E-02    0.01       1.0  T
  18   -518.5649899  0.171248E-03  0.290E-02    0.01       1.0  T
  19   -518.5652504 -0.260557E-03  0.117E-02    0.01       1.0  T
  20   -518.5652557 -0.530618E-05  0.112E-02    0.01       1.0  T
  21   -518.5652974 -0.417091E-04  0.225E-03    0.01       2.5  T
  22   -518.5652988 -0.136392E-05  0.125E-03    0.01       4.5  T
  23   -518.5652988  0.324669E-07  0.131E-03    0.01       4.3  T
  24   -518.5652993 -0.536235E-06  0.337E-04    0.01      16.7  T
  25   -518.5652992  0.698458E-07  0.547E-04    0.01      10.3  T
     SCC iter.                  ...        0 min,  5.361 sec
     gradient                   ...        0 min,  0.368 sec
 * total energy  :  -512.4643206 Eh     change       -0.2014406E-02 Eh
   gradient norm :     0.0548499 Eh/α   predicted    -0.4764638E-02 ( 136.53%)
   displ. norm   :     0.4414558 α      lambda       -0.7387471E-02
   maximum displ.:     0.1963593 α      in ANC's #2, #6, #9, ...

........................................................................
.............................. CYCLE    9 ..............................
........................................................................

 iter      E             dE          RMSdq      gap      omega  full diag
   1   -518.5814522 -0.518581E+03  0.166E-01    0.01       0.0  T
   2   -518.0903129  0.491139E+00  0.125E+00    0.01       1.0  T
   3   -518.2824176 -0.192105E+00  0.990E-01    0.02       1.0  T
   4   -518.4665503 -0.184133E+00  0.599E-01    0.01       1.0  T
   5   -518.5105644 -0.440141E-01  0.475E-01    0.00       1.0  T
   6   -518.3565182  0.154046E+00  0.802E-01    0.02       1.0  T
   7   -518.5087678 -0.152250E+00  0.460E-01    0.00       1.0  T
   8   -518.4674132  0.413546E-01  0.564E-01    0.02       1.0  T
   9   -518.5705274 -0.103114E+00  0.216E-01    0.00       1.0  T
  10   -518.5677432  0.278416E-02  0.233E-01    0.01       1.0  T
  11   -518.5794856 -0.117424E-01  0.166E-01    0.01       1.0  T
  12   -518.5826775 -0.319192E-02  0.114E-01    0.01       1.0  T
  13   -518.5848929 -0.221540E-02  0.942E-02    0.02       1.0  T
  14   -518.5767666  0.812629E-02  0.181E-01    0.00       1.0  T
  15   -518.5867016 -0.993503E-02  0.365E-02    0.01       1.0  T
  16   -518.5867610 -0.593934E-04  0.292E-02    0.01       1.0  T
  17   -518.5869768 -0.215751E-03  0.152E-02    0.01       1.0  T
  18   -518.5870222 -0.454655E-04  0.101E-02    0.01       1.0  T
  19   -518.5870498 -0.275907E-04  0.530E-03    0.01       1.1  T
  20   -518.5870588 -0.892167E-05  0.203E-03    0.01       2.8  T
  21   -518.5870559  0.282321E-05  0.339E-03    0.01       1.7  T
  22   -518.5870587 -0.276983E-05  0.193E-03    0.01       2.9  T
  23   -518.5870591 -0.365212E-06  0.164E-03    0.01       3.4  T
  24   -518.5870596 -0.539410E-06  0.119E-03    0.01       4.7  T
  25   -518.5870596 -0.234971E-07  0.110E-03    0.01       5.1  T
  26   -518.5870600 -0.416103E-06  0.328E-04    0.01      17.2  T
  27   -518.5870601 -0.310143E-07  0.136E-04    0.01      41.4  T
     SCC iter.                  ...        0 min,  7.690 sec
     gradient                   ...        0 min,  0.379 sec
 * total energy  :  -512.4685818 Eh     change       -0.4261214E-02 Eh
   gradient norm :     0.0255764 Eh/α   predicted    -0.4413591E-02 (   3.58%)
   displ. norm   :     0.3914081 α      lambda       -0.2576581E-02
   maximum displ.:     0.1261474 α      in ANC's #22, #3, #21, ...

........................................................................
.............................. CYCLE   10 ..............................
........................................................................

 iter      E             dE          RMSdq      gap      omega  full diag
   1   -518.5877399 -0.518588E+03  0.146E-01    0.01       0.0  T
   2   -518.2114654  0.376275E+00  0.108E+00    0.01       1.0  T
   3   -518.2625468 -0.510815E-01  0.980E-01    0.02       1.0  T
   4   -518.5330957 -0.270549E+00  0.413E-01    0.01       1.0  T
   5   -518.3693668  0.163729E+00  0.783E-01    0.01       1.0  T
   6   -518.5261248 -0.156758E+00  0.439E-01    0.01       1.0  T
   7   -518.5158129  0.103119E-01  0.473E-01    0.01       1.0  T
   8   -518.5322314 -0.164185E-01  0.416E-01    0.02       1.0  T
   9   -518.5863367 -0.541052E-01  0.126E-01    0.01       1.0  T
  10   -518.5795422  0.679446E-02  0.200E-01    0.01       1.0  T
  11   -518.5900097 -0.104675E-01  0.741E-02    0.01       1.0  T
  12   -518.5855397  0.446999E-02  0.131E-01    0.01       1.0  T
  13   -518.5906541 -0.511439E-02  0.597E-02    0.01       1.0  T
  14   -518.5913869 -0.732830E-03  0.340E-02    0.01       1.0  T
  15   -518.5901623  0.122467E-02  0.653E-02    0.01       1.0  T
  16   -518.5915215 -0.135928E-02  0.241E-02    0.01       1.0  T
  17   -518.5916587 -0.137197E-03  0.116E-02    0.01       1.0  T
  18   -518.5917010 -0.422663E-04  0.295E-03    0.01       1.9  T
  19   -518.5917019 -0.879715E-06  0.231E-03    0.01       2.4  T
  20   -518.5917028 -0.932198E-06  0.153E-03    0.01       3.7  T
  21   -518.5917035 -0.688247E-06  0.631E-04    0.01       8.9  T
  22   -518.5917034  0.541173E-07  0.724E-04    0.01       7.8  T
     SCC iter.                  ...        0 min,  5.790 sec
     gradient                   ...        0 min,  0.395 sec
 * total energy  :  -512.4707640 Eh     change       -0.2182133E-02 Eh
   gradient norm :     0.0278719 Eh/α   predicted    -0.1485669E-02 ( -31.92%)
   displ. norm   :     0.6502523 α      lambda       -0.4949750E-02
   maximum displ.:     0.2146177 α      in ANC's #9, #3, #22, ...

........................................................................
.............................. CYCLE   11 ..............................
........................................................................

 iter      E             dE          RMSdq      gap      omega  full diag
   1   -518.6040554 -0.518604E+03  0.149E-01    0.00       0.0  T
   2   -518.1164664  0.487589E+00  0.119E+00    0.01       1.0  T
   3   -518.3710052 -0.254539E+00  0.818E-01    0.00       1.0  T
   4   -518.5140174 -0.143012E+00  0.552E-01    0.01       1.0  T
   5   -518.3362664  0.177751E+00  0.932E-01    0.03       1.0  T
   6   -518.5057991 -0.169533E+00  0.550E-01    0.00       1.0  T
   7   -518.5287102 -0.229111E-01  0.495E-01    0.01       1.0  T
   8   -518.5405066 -0.117964E-01  0.457E-01    0.01       1.0  T
   9   -518.5802135 -0.397069E-01  0.288E-01    0.01       1.0  T
  10   -518.5874215 -0.720792E-02  0.245E-01    0.01       1.0  T
  11   -518.5937390 -0.631756E-02  0.198E-01    0.00       1.0  T
  12   -518.5894017  0.433732E-02  0.226E-01    0.01       1.0  T
  13   -518.6046206 -0.152189E-01  0.875E-02    0.02       1.0  T
  14   -518.6024802  0.214036E-02  0.119E-01    0.01       1.0  T
  15   -518.6047226 -0.224235E-02  0.857E-02    0.01       1.0  T
  16   -518.6070667 -0.234412E-02  0.313E-02    0.01       1.0  T
  17   -518.6072550 -0.188257E-03  0.214E-02    0.01       1.0  T
  18   -518.6073798 -0.124852E-03  0.953E-03    0.01       1.0  T
  19   -518.6074068 -0.270361E-04  0.328E-03    0.01       1.7  T
  20   -518.6074066  0.197351E-06  0.308E-03    0.01       1.8  T
  21   -518.6074092 -0.255524E-05  0.129E-03    0.01       4.4  T
  22   -518.6074082  0.997802E-06  0.213E-03    0.01       2.6  T
  23   -518.6074096 -0.138374E-05  0.523E-04    0.01      10.8  T
  24   -518.6074096 -0.980219E-08  0.457E-04    0.01      12.4  T
  25   -518.6074097 -0.549227E-07  0.202E-04    0.01      27.9  T
     SCC iter.                  ...        0 min,  6.338 sec
     gradient                   ...        0 min,  0.385 sec
 * total energy  :  -512.4740007 Eh     change       -0.3236689E-02 Eh
   gradient norm :     0.0285471 Eh/α   predicted    -0.3521336E-02 (   8.79%)
   displ. norm   :     0.6239596 α      lambda       -0.3838868E-02
   maximum displ.:     0.2127088 α      in ANC's #9, #21, #23, ...

........................................................................
.............................. CYCLE   12 ..............................
........................................................................

 iter      E             dE          RMSdq      gap      omega  full diag
   1   -518.5516827 -0.518552E+03  0.397E-01    0.00       0.0  T
   2   -517.9794844  0.572198E+00  0.144E+00    0.03       1.0  T
   3   -518.0793653 -0.998809E-01  0.125E+00    0.06       1.0  T
   4   -518.1301508 -0.507855E-01  0.115E+00    0.02       1.0  T
   5   -518.4351530 -0.305002E+00  0.660E-01    0.02       1.0  T
   6   -518.4376778 -0.252472E-02  0.714E-01    0.02       1.0  T
   7   -518.3069854  0.130692E+00  0.937E-01    0.01       1.0  T
   8   -518.3883103 -0.813249E-01  0.803E-01    0.01       1.0  T
   9   -518.5366887 -0.148378E+00  0.416E-01    0.01       1.0  T
  10   -518.5605891 -0.239003E-01  0.288E-01    0.01       1.0  T
  11   -518.5602443  0.344775E-03  0.306E-01    0.01       1.0  T
  12   -518.5602853 -0.409813E-04  0.308E-01    0.00       1.0  T
  13   -518.5885980 -0.283127E-01  0.762E-02    0.01       1.0  T
  14   -518.5760016  0.125963E-01  0.209E-01    0.01       1.0  T
  15   -518.5886291 -0.126274E-01  0.821E-02    0.00       1.0  T
  16   -518.5901141 -0.148499E-02  0.400E-02    0.02       1.0  T
  17   -518.5894471  0.666920E-03  0.598E-02    0.01       1.0  T
  18   -518.5872982  0.214898E-02  0.102E-01    0.02       1.0  T
  19   -518.5904227 -0.312450E-02  0.262E-02    0.01       1.0  T
  20   -518.5906383 -0.215648E-03  0.901E-03    0.01       1.0  T
  21   -518.5905571  0.812043E-04  0.182E-02    0.01       1.0  T
  22   -518.5906612 -0.104083E-03  0.337E-03    0.01       1.7  T
  23   -518.5906620 -0.781033E-06  0.297E-03    0.01       1.9  T
  24   -518.5906645 -0.256254E-05  0.106E-03    0.01       5.3  T
  25   -518.5906645  0.768796E-07  0.119E-03    0.01       4.7  T
  26   -518.5906648 -0.388370E-06  0.537E-04    0.01      10.5  T
  27   -518.5906648  0.275224E-07  0.597E-04    0.01       9.4  T
     SCC iter.                  ...        0 min,  6.994 sec
     gradient                   ...        0 min,  0.392 sec
 * total energy  :  -512.4758746 Eh     change       -0.1873977E-02 Eh
   gradient norm :     0.0387909 Eh/α   predicted    -0.2666722E-02 (  42.30%)
   displ. norm   :     0.3907022 α      lambda       -0.3141601E-02
   maximum displ.:     0.1777973 α      in ANC's #23, #3, #22, ...

........................................................................
.............................. CYCLE   13 ..............................
........................................................................

 iter      E             dE          RMSdq      gap      omega  full diag
   1   -518.5855041 -0.518586E+03  0.131E-01    0.01       0.0  T
   2   -517.9700820  0.615422E+00  0.134E+00    0.00       1.0  T
   3   -518.1549208 -0.184839E+00  0.110E+00    0.05       1.0  T
   4   -518.5747096 -0.419789E+00  0.212E-01    0.01       1.0  T
   5   -518.5608352  0.138744E-01  0.296E-01    0.02       1.0  T
   6   -518.4732792  0.875560E-01  0.605E-01    0.01       1.0  T
   7   -518.5802056 -0.106926E+00  0.186E-01    0.02       1.0  T
   8   -518.5878207 -0.761507E-02  0.997E-02    0.01       1.0  T
   9   -518.5849195  0.290113E-02  0.129E-01    0.01       1.0  T
  10   -518.5867708 -0.185128E-02  0.103E-01    0.01       1.0  T
  11   -518.5888012 -0.203040E-02  0.753E-02    0.01       1.0  T
  12   -518.5829119  0.588929E-02  0.141E-01    0.01       1.0  T
  13   -518.5900739 -0.716201E-02  0.319E-02    0.01       1.0  T
  14   -518.5887047  0.136925E-02  0.673E-02    0.01       1.0  T
  15   -518.5902660 -0.156129E-02  0.225E-02    0.01       1.0  T
  16   -518.5903640 -0.980793E-04  0.141E-02    0.01       1.0  T
  17   -518.5903949 -0.308385E-04  0.107E-02    0.01       1.0  T
  18   -518.5904314 -0.365415E-04  0.372E-03    0.01       1.5  T
  19   -518.5904346 -0.317974E-05  0.234E-03    0.01       2.4  T
  20   -518.5904353 -0.673072E-06  0.197E-03    0.01       2.9  T
  21   -518.5904350  0.284478E-06  0.207E-03    0.01       2.7  T
  22   -518.5904364 -0.145431E-05  0.541E-04    0.01      10.4  T
  23   -518.5904364  0.297932E-07  0.598E-04    0.01       9.4  T
  24   -518.5904365 -0.110040E-06  0.248E-04    0.01      22.8  T
     SCC iter.                  ...        0 min,  7.176 sec
     gradient                   ...        0 min,  0.360 sec
 * total energy  :  -512.4771577 Eh     change       -0.1283090E-02 Eh
   gradient norm :     0.0411042 Eh/α   predicted    -0.1810588E-02 (  41.11%)
   displ. norm   :     0.4209311 α      lambda       -0.4613091E-02
   maximum displ.:     0.2124943 α      in ANC's #9, #23, #3, ...

........................................................................
.............................. CYCLE   14 ..............................
........................................................................

 iter      E             dE          RMSdq      gap      omega  full diag
   1   -518.5922988 -0.518592E+03  0.139E-01    0.01       0.0  T
   2   -517.9756103  0.616688E+00  0.134E+00    0.01       1.0  T
   3   -518.2956458 -0.320036E+00  0.102E+00    0.02       1.0  T
   4   -518.5832320 -0.287586E+00  0.212E-01    0.00       1.0  T
   5   -518.5692291  0.140029E-01  0.286E-01    0.01       1.0  T
   6   -518.5386914  0.305377E-01  0.424E-01    0.01       1.0  T
   7   -518.5806856 -0.419942E-01  0.215E-01    0.00       1.0  T
   8   -518.5139376  0.667480E-01  0.490E-01    0.00       1.0  T
   9   -518.5951063 -0.811687E-01  0.829E-02    0.02       1.0  T
  10   -518.5805304  0.145759E-01  0.210E-01    0.01       1.0  T
  11   -518.5961880 -0.156576E-01  0.744E-02    0.01       1.0  T
  12   -518.5937482  0.243977E-02  0.105E-01    0.01       1.0  T
  13   -518.5950591 -0.131091E-02  0.952E-02    0.01       1.0  T
  14   -518.5948002  0.258969E-03  0.856E-02    0.01       1.0  T
  15   -518.5973103 -0.251016E-02  0.224E-02    0.01       1.0  T
  16   -518.5974411 -0.130777E-03  0.113E-02    0.01       1.0  T
  17   -518.5974728 -0.316584E-04  0.562E-03    0.01       1.0  T
  18   -518.5974775 -0.472989E-05  0.347E-03    0.01       1.6  T
  19   -518.5974802 -0.267062E-05  0.181E-03    0.01       3.1  T
  20   -518.5974792  0.100835E-05  0.236E-03    0.01       2.4  T
  21   -518.5974802 -0.103775E-05  0.163E-03    0.01       3.5  T
  22   -518.5974802 -0.896739E-08  0.153E-03    0.01       3.7  T
  23   -518.5974809 -0.747127E-06  0.352E-04    0.01      16.0  T
  24   -518.5974809  0.625846E-09  0.312E-04    0.01      18.1  T
     SCC iter.                  ...        0 min,  6.628 sec
     gradient                   ...        0 min,  0.447 sec
 * total energy  :  -512.4789472 Eh     change       -0.1789514E-02 Eh
   gradient norm :     0.0399159 Eh/α   predicted    -0.2715229E-02 (  51.73%)
   displ. norm   :     0.3925299 α      lambda       -0.3367275E-02
   maximum displ.:     0.1490544 α      in ANC's #23, #21, #3, ...

........................................................................
.............................. CYCLE   15 ..............................
........................................................................

 iter      E             dE          RMSdq      gap      omega  full diag
   1   -518.5950577 -0.518595E+03  0.194E-01    0.01       0.0  T
   2   -518.2256346  0.369423E+00  0.108E+00    0.03       1.0  T
   3   -518.1468015  0.788331E-01  0.116E+00    0.02       1.0  T
   4   -518.4113351 -0.264534E+00  0.738E-01    0.00       1.0  T
   5   -518.5777851 -0.166450E+00  0.284E-01    0.01       1.0  T
   6   -518.4565444  0.121241E+00  0.662E-01    0.00       1.0  T
   7   -518.5383547 -0.818103E-01  0.446E-01    0.00       1.0  T
   8   -518.5636353 -0.252806E-01  0.383E-01    0.00       1.0  T
   9   -518.5907146 -0.270793E-01  0.191E-01    0.01       1.0  T
  10   -518.5958140 -0.509939E-02  0.152E-01    0.02       1.0  T
  11   -518.5896746  0.613940E-02  0.203E-01    0.00       1.0  T
  12   -518.5987183 -0.904373E-02  0.132E-01    0.00       1.0  T
  13   -518.5982811  0.437228E-03  0.134E-01    0.00       1.0  T
  14   -518.5971180  0.116314E-02  0.140E-01    0.01       1.0  T
  15   -518.6031115 -0.599357E-02  0.511E-02    0.01       1.0  T
  16   -518.6032706 -0.159060E-03  0.462E-02    0.01       1.0  T
  17   -518.6038847 -0.614073E-03  0.143E-02    0.01       1.0  T
  18   -518.6038393  0.453766E-04  0.186E-02    0.01       1.0  T
  19   -518.6039143 -0.750251E-04  0.106E-02    0.01       1.0  T
  20   -518.6039431 -0.287989E-04  0.485E-03    0.01       1.2  T
  21   -518.6039501 -0.701066E-05  0.138E-03    0.01       4.1  T
  22   -518.6039465  0.358878E-05  0.360E-03    0.01       1.6  T
  23   -518.6039504 -0.383497E-05  0.108E-03    0.01       5.2  T
  24   -518.6039507 -0.296214E-06  0.472E-04    0.01      11.9  T
  25   -518.6039506  0.511968E-07  0.657E-04    0.01       8.6  T
     SCC iter.                  ...        0 min,  7.997 sec
     gradient                   ...        0 min,  0.458 sec
 * total energy  :  -512.4804087 Eh     change       -0.1461425E-02 Eh
   gradient norm :     0.0421497 Eh/α   predicted    -0.1943054E-02 (  32.96%)
   displ. norm   :     0.5248123 α      lambda       -0.4401992E-02
   maximum displ.:     0.2136916 α      in ANC's #23, #13, #9, ...

........................................................................
.............................. CYCLE   16 ..............................
........................................................................

 iter      E             dE          RMSdq      gap      omega  full diag
   1   -518.5726451 -0.518573E+03  0.214E-01    0.01       0.0  T
   2   -517.9677337  0.604911E+00  0.144E+00    0.03       1.0  T
   3   -518.1714835 -0.203750E+00  0.110E+00    0.02       1.0  T
   4   -518.3604572 -0.188974E+00  0.798E-01    0.01       1.0  T
   5   -518.5135327 -0.153075E+00  0.442E-01    0.01       1.0  T
   6   -518.4138144  0.997182E-01  0.711E-01    0.00       1.0  T
   7   -518.5022979 -0.884835E-01  0.514E-01    0.01       1.0  T
   8   -518.4664470  0.358510E-01  0.628E-01    0.01       1.0  T
   9   -518.5303409 -0.638939E-01  0.412E-01    0.01       1.0  T
  10   -518.5613897 -0.310488E-01  0.281E-01    0.01       1.0  T
  11   -518.5771626 -0.157729E-01  0.137E-01    0.01       1.0  T
  12   -518.5642358  0.129268E-01  0.240E-01    0.02       1.0  T
  13   -518.5814317 -0.171959E-01  0.774E-02    0.02       1.0  T
  14   -518.5728861  0.854561E-02  0.168E-01    0.01       1.0  T
  15   -518.5829625 -0.100764E-01  0.397E-02    0.01       1.0  T
  16   -518.5830998 -0.137235E-03  0.304E-02    0.01       1.0  T
  17   -518.5832090 -0.109269E-03  0.223E-02    0.01       1.0  T
  18   -518.5833700 -0.160998E-03  0.691E-03    0.01       1.0  T
  19   -518.5833736 -0.362295E-05  0.548E-03    0.01       1.0  T
  20   -518.5833805 -0.682547E-05  0.331E-03    0.01       1.7  T
  21   -518.5833787  0.173890E-05  0.393E-03    0.01       1.4  T
  22   -518.5833837 -0.498396E-05  0.113E-03    0.01       5.0  T
  23   -518.5833840 -0.301180E-06  0.647E-04    0.01       8.7  T
  24   -518.5833841 -0.320898E-07  0.555E-04    0.01      10.2  T
     SCC iter.                  ...        0 min,  5.939 sec
     gradient                   ...        0 min,  0.372 sec
 * total energy  :  -512.4811799 Eh     change       -0.7712545E-03 Eh
   gradient norm :     0.0492735 Eh/α   predicted    -0.2807217E-02 ( 263.98%)
   displ. norm   :     0.2476341 α      lambda       -0.3979321E-02
   maximum displ.:     0.1160202 α      in ANC's #23, #14, #11, ...

........................................................................
.............................. CYCLE   17 ..............................
........................................................................

 iter      E             dE          RMSdq      gap      omega  full diag
   1   -518.5960613 -0.518596E+03  0.993E-02    0.01       0.0  T
   2   -518.1080692  0.487992E+00  0.125E+00    0.03       1.0  T
   3   -518.3939422 -0.285873E+00  0.775E-01    0.03       1.0  T
   4   -518.5693891 -0.175447E+00  0.299E-01    0.01       1.0  T
   5   -518.5307124  0.386768E-01  0.451E-01    0.01       1.0  T
   6   -518.5304574  0.254974E-03  0.437E-01    0.00       1.0  T
   7   -518.5922018 -0.617444E-01  0.132E-01    0.02       1.0  T
   8   -518.5049477  0.872541E-01  0.509E-01    0.01       1.0  T
   9   -518.5944484 -0.895007E-01  0.103E-01    0.01       1.0  T
  10   -518.5936278  0.820537E-03  0.110E-01    0.01       1.0  T
  11   -518.5964354 -0.280755E-02  0.802E-02    0.01       1.0  T
  12   -518.5949781  0.145729E-02  0.109E-01    0.01       1.0  T
  13   -518.5974105 -0.243244E-02  0.434E-02    0.01       1.0  T
  14   -518.5974371 -0.265928E-04  0.388E-02    0.01       1.0  T
  15   -518.5976721 -0.234924E-03  0.304E-02    0.01       1.0  T
  16   -518.5979849 -0.312863E-03  0.676E-03    0.01       1.0  T
  17   -518.5979928 -0.784058E-05  0.472E-03    0.01       1.2  T
  18   -518.5979966 -0.386049E-05  0.259E-03    0.01       2.2  T
  19   -518.5979973 -0.679640E-06  0.232E-03    0.01       2.4  T
  20   -518.5979980 -0.720458E-06  0.164E-03    0.01       3.4  T
  21   -518.5979984 -0.406679E-06  0.116E-03    0.01       4.9  T
  22   -518.5979988 -0.322776E-06  0.610E-04    0.01       9.3  T
  23   -518.5979988 -0.790399E-07  0.387E-04    0.01      14.6  T
     SCC iter.                  ...        0 min,  6.803 sec
     gradient                   ...        0 min,  0.336 sec
 * total energy  :  -512.4833952 Eh     change       -0.2215294E-02 Eh
   gradient norm :     0.0249360 Eh/α   predicted    -0.2111674E-02 (  -4.68%)
   displ. norm   :     0.5017289 α      lambda       -0.4208771E-02
   maximum displ.:     0.2131925 α      in ANC's #3, #20, #8, ...

........................................................................
.............................. CYCLE   18 ..............................
........................................................................

 iter      E             dE          RMSdq      gap      omega  full diag
   1   -518.5953415 -0.518595E+03  0.173E-01    0.00       0.0  T
   2   -518.0547203  0.540621E+00  0.129E+00    0.00       1.0  T
   3   -518.2173726 -0.162652E+00  0.108E+00    0.02       1.0  T
   4   -518.5358058 -0.318433E+00  0.454E-01    0.00       1.0  T
   5   -518.5475474 -0.117416E-01  0.414E-01    0.00       1.0  T
   6   -518.4932132  0.543342E-01  0.536E-01    0.02       1.0  T
   7   -518.5717452 -0.785321E-01  0.298E-01    0.01       1.0  T
   8   -518.5586581  0.130871E-01  0.382E-01    0.00       1.0  T
   9   -518.5843976 -0.257395E-01  0.245E-01    0.02       1.0  T
  10   -518.5834709  0.926679E-03  0.246E-01    0.01       1.0  T
  11   -518.5982375 -0.147666E-01  0.116E-01    0.01       1.0  T
  12   -518.5865984  0.116391E-01  0.208E-01    0.01       1.0  T
  13   -518.5995806 -0.129822E-01  0.874E-02    0.00       1.0  T
  14   -518.6010876 -0.150697E-02  0.523E-02    0.01       1.0  T
  15   -518.5986257  0.246186E-02  0.935E-02    0.01       1.0  T
  16   -518.6019820 -0.335625E-02  0.153E-02    0.01       1.0  T
  17   -518.6019067  0.752635E-04  0.213E-02    0.01       1.0  T
  18   -518.6020201 -0.113445E-03  0.111E-02    0.01       1.0  T
  19   -518.6020548 -0.347024E-04  0.431E-03    0.01       1.3  T
  20   -518.6020466  0.826767E-05  0.649E-03    0.01       1.0  T
  21   -518.6020583 -0.117456E-04  0.269E-03    0.01       2.1  T
  22   -518.6020581  0.261283E-06  0.284E-03    0.01       2.0  T
  23   -518.6020605 -0.244575E-05  0.994E-04    0.01       5.7  T
  24   -518.6020604  0.102276E-06  0.109E-03    0.01       5.2  T
  25   -518.6020608 -0.407730E-06  0.156E-04    0.01      36.2  T
  26   -518.6020608  0.105141E-07  0.234E-04    0.01      24.1  T
     SCC iter.                  ...        0 min,  7.721 sec
     gradient                   ...        0 min,  0.350 sec
 * total energy  :  -512.4822927 Eh     change        0.1102485E-02 Eh
   gradient norm :     0.0716227 Eh/α   predicted    -0.2634133E-02 (-338.93%)
   displ. norm   :     0.2967408 α      lambda       -0.6803890E-02
   maximum displ.:     0.1526517 α      in ANC's #20, #23, #21, ...

........................................................................
.............................. CYCLE   19 ..............................
........................................................................

 iter      E             dE          RMSdq      gap      omega  full diag
   1   -518.5872175 -0.518587E+03  0.272E-01    0.02       0.0  T
   2   -517.6389257  0.948292E+00  0.159E+00    0.00       1.0  T
   3   -518.1331945 -0.494269E+00  0.122E+00    0.00       1.0  T
   4   -518.2837103 -0.150516E+00  0.101E+00    0.01       1.0  T
   5   -518.5381356 -0.254425E+00  0.436E-01    0.01       1.0  T
   6   -518.4865736  0.515621E-01  0.651E-01    0.02       1.0  T
   7   -518.4116999  0.748737E-01  0.750E-01    0.01       1.0  T
   8   -518.5876682 -0.175968E+00  0.263E-01    0.01       1.0  T
   9   -518.5433652  0.443030E-01  0.437E-01    0.00       1.0  T
  10   -518.5996197 -0.562545E-01  0.164E-01    0.02       1.0  T
  11   -518.5987532  0.866519E-03  0.166E-01    0.01       1.0  T
  12   -518.6030625 -0.430932E-02  0.133E-01    0.01       1.0  T
  13   -518.6060474 -0.298495E-02  0.798E-02    0.01       1.0  T
  14   -518.5966717  0.937570E-02  0.175E-01    0.00       1.0  T
  15   -518.5993897 -0.271798E-02  0.151E-01    0.02       1.0  T
  16   -518.6053453 -0.595557E-02  0.797E-02    0.01       1.0  T
  17   -518.6051909  0.154432E-03  0.847E-02    0.01       1.0  T
  18   -518.6075863 -0.239545E-02  0.203E-02    0.01       1.0  T
  19   -518.6076427 -0.563481E-04  0.140E-02    0.01       1.0  T
  20   -518.6076686 -0.259346E-04  0.107E-02    0.01       1.0  T
  21   -518.6076906 -0.220272E-04  0.717E-03    0.01       1.0  T
  22   -518.6077036 -0.130057E-04  0.404E-03    0.01       1.4  T
  23   -518.6077063 -0.265485E-05  0.289E-03    0.01       2.0  T
  24   -518.6077081 -0.183068E-05  0.186E-03    0.01       3.0  T
  25   -518.6077089 -0.753784E-06  0.116E-03    0.01       4.8  T
  26   -518.6077092 -0.377482E-06  0.588E-04    0.01       9.6  T
  27   -518.6077094 -0.106861E-06  0.226E-04    0.01      24.9  T
     SCC iter.                  ...        0 min,  7.041 sec
     gradient                   ...        0 min,  0.358 sec
 * total energy  :  -512.4851177 Eh     change       -0.2824998E-02 Eh
   gradient norm :     0.0436253 Eh/α   predicted    -0.3701509E-02 (  31.03%)
   displ. norm   :     0.4845637 α      lambda       -0.6827369E-02
   maximum displ.:     0.2113319 α      in ANC's #21, #6, #8, ...

........................................................................
.............................. CYCLE   20 ..............................
........................................................................

 iter      E             dE          RMSdq      gap      omega  full diag
   1   -518.5709308 -0.518571E+03  0.366E-01    0.00       0.0  T
   2   -518.1353999  0.435531E+00  0.127E+00    0.03       1.0  T
   3   -518.0461775  0.892224E-01  0.132E+00    0.01       1.0  T
   4   -518.3221774 -0.276000E+00  0.977E-01    0.00       1.0  T
   5   -518.4167358 -0.945583E-01  0.763E-01    0.00       1.0  T
   6   -518.4540086 -0.372729E-01  0.705E-01    0.01       1.0  T
   7   -518.5742189 -0.120210E+00  0.299E-01    0.01       1.0  T
   8   -518.3359967  0.238222E+00  0.910E-01    0.00       1.0  T
   9   -518.4060199 -0.700232E-01  0.839E-01    0.00       1.0  T
  10   -518.4860687 -0.800487E-01  0.633E-01    0.01       1.0  T
  11   -518.4888455 -0.277688E-02  0.618E-01    0.01       1.0  T
  12   -518.5799846 -0.911390E-01  0.265E-01    0.02       1.0  T
  13   -518.5434002  0.365843E-01  0.419E-01    0.01       1.0  T
  14   -518.5311427  0.122576E-01  0.480E-01    0.02       1.0  T
  15   -518.5697926 -0.386499E-01  0.309E-01    0.01       1.0  T
  16   -518.6001250 -0.303324E-01  0.930E-02    0.00       1.0  T
  17   -518.5982931  0.183190E-02  0.122E-01    0.02       1.0  T
  18   -518.6027295 -0.443647E-02  0.296E-02    0.01       1.0  T
  19   -518.6029635 -0.234007E-03  0.852E-03    0.01       1.0  T
  20   -518.6029290  0.345421E-04  0.134E-02    0.01       1.0  T
  21   -518.6024028  0.526162E-03  0.432E-02    0.02       1.0  T
  22   -518.6029412 -0.538389E-03  0.122E-02    0.01       1.0  T
  23   -518.6029454 -0.420650E-05  0.115E-02    0.01       1.0  T
  24   -518.6029792 -0.337743E-04  0.472E-03    0.01       1.2  T
  25   -518.6029828 -0.361058E-05  0.332E-03    0.01       1.7  T
  26   -518.6029861 -0.330546E-05  0.429E-04    0.01      13.2  T
  27   -518.6029861  0.202292E-07  0.490E-04    0.01      11.5  T
  28   -518.6029859  0.246850E-06  0.103E-03    0.01       5.5  T
  29   -518.6029862 -0.313436E-06  0.187E-04    0.01      30.1  T
     SCC iter.                  ...        0 min,  8.047 sec
     gradient                   ...        0 min,  0.375 sec
 * total energy  :  -512.4814783 Eh     change        0.3639456E-02 Eh
   gradient norm :     0.0712370 Eh/α   predicted    -0.4215227E-02 (-215.82%)
   displ. norm   :     0.3138204 α      lambda       -0.1062098E-01
   maximum displ.:     0.1681360 α      in ANC's #6, #3, #8, ...
 * RMSD in coord.:     0.3355653 α      energy gain  -0.8687251E+00 Eh

generating ANC from model Hessian ...
Using Lindh-Hessian (1995)
 Shifting diagonal of input Hessian by    2.6115909330803877E-003
 Lowest  eigenvalues of input Hessian
    0.000000    0.000000    0.000000    0.000000    0.000000    0.000000
    0.010000    0.010667    0.010697    0.011176    0.011502    0.011535
    0.011801    0.012169    0.012204    0.012234    0.012267    0.012529
 Highest eigenvalues
    2.826140    2.836456    2.847123    2.851200    2.871628    3.032880


........................................................................
.............................. CYCLE   21 ..............................
........................................................................

 iter      E             dE          RMSdq      gap      omega  full diag
   1   -518.6028213 -0.518603E+03  0.144E-01    0.02       0.0  T
   2   -518.2917256  0.311096E+00  0.102E+00    0.01       1.0  T
   3   -518.2966475 -0.492192E-02  0.963E-01    0.02       1.0  T
   4   -518.4745687 -0.177921E+00  0.615E-01    0.00       1.0  T
   5   -518.5989669 -0.124398E+00  0.157E-01    0.01       1.0  T
   6   -518.4505936  0.148373E+00  0.706E-01    0.03       1.0  T
   7   -518.5858054 -0.135212E+00  0.250E-01    0.01       1.0  T
   8   -518.5926730 -0.686760E-02  0.206E-01    0.01       1.0  T
   9   -518.5834361  0.923692E-02  0.255E-01    0.00       1.0  T
  10   -518.6027250 -0.192889E-01  0.127E-01    0.00       1.0  T
  11   -518.5980464  0.467866E-02  0.171E-01    0.01       1.0  T
  12   -518.6061827 -0.813633E-02  0.722E-02    0.01       1.0  T
  13   -518.6050214  0.116127E-02  0.777E-02    0.01       1.0  T
  14   -518.6065248 -0.150335E-02  0.497E-02    0.01       1.0  T
  15   -518.6072997 -0.774928E-03  0.101E-02    0.01       1.0  T
  16   -518.6071868  0.112887E-03  0.210E-02    0.01       1.0  T
  17   -518.6073284 -0.141611E-03  0.429E-03    0.01       1.3  T
  18   -518.6073284 -0.223372E-07  0.417E-03    0.01       1.4  T
  19   -518.6073280  0.440546E-06  0.443E-03    0.01       1.3  T
  20   -518.6073299 -0.192445E-05  0.372E-03    0.01       1.5  T
  21   -518.6073331 -0.315294E-05  0.199E-03    0.01       2.8  T
  22   -518.6073342 -0.109765E-05  0.818E-04    0.01       6.9  T
  23   -518.6073342 -0.462526E-07  0.733E-04    0.01       7.7  T
  24   -518.6073343 -0.387544E-07  0.697E-04    0.01       8.1  T
     SCC iter.                  ...        0 min,  6.296 sec
     gradient                   ...        0 min,  0.358 sec
 * total energy  :  -512.4872411 Eh     change       -0.5762794E-02 Eh
   gradient norm :     0.0219903 Eh/α   predicted     0.0000000E+00 (-100.00%)
   displ. norm   :     0.3564517 α      lambda       -0.2581931E-02
   maximum displ.:     0.1824254 α      in ANC's #8, #6, #2, ...

........................................................................
.............................. CYCLE   22 ..............................
........................................................................

 iter      E             dE          RMSdq      gap      omega  full diag
   1   -518.6083223 -0.518608E+03  0.464E-02    0.01       0.0  T
   2   -518.4436508  0.164672E+00  0.701E-01    0.00       1.0  T
   3   -518.5948056 -0.151155E+00  0.211E-01    0.02       1.0  T
   4   -518.5741895  0.206161E-01  0.312E-01    0.01       1.0  T
   5   -518.5827130 -0.852348E-02  0.282E-01    0.00       1.0  T
   6   -518.6046212 -0.219082E-01  0.110E-01    0.02       1.0  T
   7   -518.5881601  0.164611E-01  0.251E-01    0.01       1.0  T
   8   -518.6048322 -0.166720E-01  0.105E-01    0.01       1.0  T
   9   -518.6072107 -0.237849E-02  0.638E-02    0.01       1.0  T
  10   -518.6070554  0.155309E-03  0.715E-02    0.01       1.0  T
  11   -518.6052352  0.182018E-02  0.978E-02    0.01       1.0  T
  12   -518.6079212 -0.268601E-02  0.457E-02    0.01       1.0  T
  13   -518.6083324 -0.411242E-03  0.246E-02    0.01       1.0  T
  14   -518.6073522  0.980249E-03  0.563E-02    0.01       1.0  T
  15   -518.6085230 -0.117079E-02  0.903E-03    0.01       1.0  T
  16   -518.6085401 -0.170661E-04  0.411E-03    0.01       1.4  T
  17   -518.6085441 -0.402271E-05  0.191E-03    0.01       3.0  T
  18   -518.6085448 -0.692527E-06  0.119E-03    0.01       4.7  T
  19   -518.6085449 -0.160606E-06  0.114E-03    0.01       5.0  T
  20   -518.6085451 -0.189786E-06  0.590E-04    0.01       9.6  T
  21   -518.6085452 -0.386821E-07  0.382E-04    0.01      14.8  T
     SCC iter.                  ...        0 min,  6.029 sec
     gradient                   ...        0 min,  0.393 sec
 * total energy  :  -512.4894168 Eh     change       -0.2175766E-02 Eh
   gradient norm :     0.0096937 Eh/α   predicted    -0.1455002E-02 ( -33.13%)
   displ. norm   :     0.7149627 α      lambda       -0.3789279E-02
   maximum displ.:     0.3831260 α      in ANC's #8, #6, #2, ...

........................................................................
.............................. CYCLE   23 ..............................
........................................................................

 iter      E             dE          RMSdq      gap      omega  full diag
   1   -518.5979474 -0.518598E+03  0.966E-02    0.01       0.0  T
   2   -518.1387530  0.459194E+00  0.126E+00    0.02       1.0  T
   3   -518.5022893 -0.363536E+00  0.564E-01    0.01       1.0  T
   4   -518.5688345 -0.665452E-01  0.297E-01    0.01       1.0  T
   5   -518.4471458  0.121689E+00  0.700E-01    0.01       1.0  T
   6   -518.5762388 -0.129093E+00  0.262E-01    0.01       1.0  T
   7   -518.5734612  0.277761E-02  0.289E-01    0.00       1.0  T
   8   -518.5312894  0.421718E-01  0.440E-01    0.02       1.0  T
   9   -518.5840013 -0.527119E-01  0.211E-01    0.01       1.0  T
  10   -518.5950281 -0.110268E-01  0.111E-01    0.00       1.0  T
  11   -518.5933265  0.170160E-02  0.147E-01    0.01       1.0  T
  12   -518.5869687  0.635776E-02  0.186E-01    0.01       1.0  T
  13   -518.5984855 -0.115168E-01  0.565E-02    0.01       1.0  T
  14   -518.5900345  0.845104E-02  0.158E-01    0.01       1.0  T
  15   -518.5992713 -0.923681E-02  0.177E-02    0.01       1.0  T
  16   -518.5993309 -0.596034E-04  0.122E-02    0.01       1.0  T
  17   -518.5993618 -0.309398E-04  0.796E-03    0.01       1.0  T
  18   -518.5993787 -0.168364E-04  0.273E-03    0.01       2.1  T
  19   -518.5993799 -0.124490E-05  0.195E-03    0.01       2.9  T
  20   -518.5993805 -0.598529E-06  0.119E-03    0.01       4.7  T
  21   -518.5993808 -0.253062E-06  0.657E-04    0.01       8.6  T
  22   -518.5993808 -0.674970E-07  0.511E-04    0.01      11.0  T
     SCC iter.                  ...        0 min,  5.411 sec
     gradient                   ...        0 min,  0.408 sec
 * total energy  :  -512.4920728 Eh     change       -0.2655955E-02 Eh
   gradient norm :     0.0262819 Eh/α   predicted    -0.2863127E-02 (   7.80%)
   displ. norm   :     0.4268530 α      lambda       -0.2227235E-02
   maximum displ.:     0.1754725 α      in ANC's #2, #12, #8, ...

........................................................................
.............................. CYCLE   24 ..............................
........................................................................

 iter      E             dE          RMSdq      gap      omega  full diag
   1   -518.5968989 -0.518597E+03  0.812E-02    0.01       0.0  T
   2   -518.2215025  0.375396E+00  0.108E+00    0.01       1.0  T
   3   -518.4631807 -0.241678E+00  0.627E-01    0.00       1.0  T
   4   -518.5896460 -0.126465E+00  0.166E-01    0.01       1.0  T
   5   -518.5379548  0.516913E-01  0.432E-01    0.00       1.0  T
   6   -518.5791725 -0.412177E-01  0.248E-01    0.01       1.0  T
   7   -518.5905370 -0.113646E-01  0.163E-01    0.01       1.0  T
   8   -518.5590807  0.314563E-01  0.338E-01    0.00       1.0  T
   9   -518.5925129 -0.334322E-01  0.142E-01    0.02       1.0  T
  10   -518.5965540 -0.404105E-02  0.753E-02    0.00       1.0  T
  11   -518.5972622 -0.708224E-03  0.592E-02    0.01       1.0  T
  12   -518.5914956  0.576659E-02  0.140E-01    0.01       1.0  T
  13   -518.5977519 -0.625632E-02  0.484E-02    0.01       1.0  T
  14   -518.5958608  0.189110E-02  0.826E-02    0.01       1.0  T
  15   -518.5983900 -0.252922E-02  0.152E-02    0.01       1.0  T
  16   -518.5984576 -0.675180E-04  0.591E-03    0.01       1.0  T
  17   -518.5984649 -0.738343E-05  0.237E-03    0.01       2.4  T
  18   -518.5984665 -0.153594E-05  0.114E-03    0.01       5.0  T
  19   -518.5984664  0.628535E-07  0.107E-03    0.01       5.3  T
  20   -518.5984667 -0.316978E-06  0.469E-04    0.01      12.0  T
  21   -518.5984667  0.151567E-08  0.471E-04    0.01      12.0  T
     SCC iter.                  ...        0 min,  6.851 sec
     gradient                   ...        0 min,  0.380 sec
 * total energy  :  -512.4938258 Eh     change       -0.1753046E-02 Eh
   gradient norm :     0.0251742 Eh/α   predicted    -0.1316523E-02 ( -24.90%)
   displ. norm   :     0.4217812 α      lambda       -0.2877304E-02
   maximum displ.:     0.2127693 α      in ANC's #12, #8, #6, ...

........................................................................
.............................. CYCLE   25 ..............................
........................................................................

 iter      E             dE          RMSdq      gap      omega  full diag
   1   -518.6079006 -0.518608E+03  0.113E-01    0.01       0.0  T
   2   -518.1903447  0.417556E+00  0.112E+00    0.01       1.0  T
   3   -518.2826083 -0.922636E-01  0.959E-01    0.01       1.0  T
   4   -518.6072749 -0.324667E+00  0.116E-01    0.01       1.0  T
   5   -518.5377210  0.695539E-01  0.466E-01    0.00       1.0  T
   6   -518.5803510 -0.426301E-01  0.317E-01    0.00       1.0  T
   7   -518.5988367 -0.184856E-01  0.192E-01    0.01       1.0  T
   8   -518.5916308  0.720589E-02  0.252E-01    0.00       1.0  T
   9   -518.6086060 -0.169753E-01  0.118E-01    0.01       1.0  T
  10   -518.6086019  0.408918E-05  0.918E-02    0.01       1.0  T
  11   -518.6091358 -0.533869E-03  0.839E-02    0.01       1.0  T
  12   -518.6050099  0.412594E-02  0.143E-01    0.00       1.0  T
  13   -518.6111166 -0.610674E-02  0.391E-02    0.01       1.0  T
  14   -518.6103678  0.748857E-03  0.566E-02    0.01       1.0  T
  15   -518.6114609 -0.109312E-02  0.165E-02    0.01       1.0  T
  16   -518.6115543 -0.933734E-04  0.493E-03    0.01       1.1  T
  17   -518.6115599 -0.561902E-05  0.268E-03    0.01       2.1  T
  18   -518.6115614 -0.153719E-05  0.152E-03    0.01       3.7  T
  19   -518.6115614 -0.220502E-07  0.123E-03    0.01       4.6  T
  20   -518.6115618 -0.329729E-06  0.738E-04    0.01       7.6  T
  21   -518.6115618 -0.153282E-07  0.728E-04    0.01       7.8  T
     SCC iter.                  ...        0 min,  5.251 sec
     gradient                   ...        0 min,  0.385 sec
 * total energy  :  -512.4956497 Eh     change       -0.1823835E-02 Eh
   gradient norm :     0.0106805 Eh/α   predicted    -0.1694591E-02 (  -7.09%)
   displ. norm   :     0.6767902 α      lambda       -0.2364646E-02
   maximum displ.:     0.3447297 α      in ANC's #8, #6, #2, ...

........................................................................
.............................. CYCLE   26 ..............................
........................................................................

 iter      E             dE          RMSdq      gap      omega  full diag
   1   -518.5945553 -0.518595E+03  0.130E-01    0.01       0.0  T
   2   -518.1875767  0.406979E+00  0.109E+00    0.02       1.0  T
   3   -518.1700700  0.175067E-01  0.110E+00    0.01       1.0  T
   4   -518.5961121 -0.426042E+00  0.979E-02    0.01       1.0  T
   5   -518.4135708  0.182541E+00  0.724E-01    0.01       1.0  T
   6   -518.5533243 -0.139753E+00  0.368E-01    0.01       1.0  T
   7   -518.5889969 -0.356726E-01  0.173E-01    0.00       1.0  T
   8   -518.5697549  0.192420E-01  0.310E-01    0.00       1.0  T
   9   -518.5934067 -0.236518E-01  0.145E-01    0.02       1.0  T
  10   -518.5906141  0.279260E-02  0.180E-01    0.00       1.0  T
  11   -518.5960542 -0.544004E-02  0.115E-01    0.01       1.0  T
  12   -518.5866654  0.938881E-02  0.186E-01    0.00       1.0  T
  13   -518.5986541 -0.119888E-01  0.430E-02    0.01       1.0  T
  14   -518.5981477  0.506464E-03  0.568E-02    0.01       1.0  T
  15   -518.5992767 -0.112899E-02  0.110E-02    0.01       1.0  T
  16   -518.5992902 -0.135450E-04  0.829E-03    0.01       1.0  T
  17   -518.5992921 -0.186170E-05  0.700E-03    0.01       1.0  T
  18   -518.5993027 -0.106534E-04  0.435E-03    0.01       1.3  T
  19   -518.5993092 -0.650152E-05  0.138E-03    0.01       4.1  T
  20   -518.5993095 -0.319603E-06  0.103E-03    0.01       5.5  T
  21   -518.5993098 -0.300730E-06  0.405E-04    0.01      13.9  T
  22   -518.5993098  0.225855E-07  0.466E-04    0.01      12.1  T
     SCC iter.                  ...        0 min,  5.943 sec
     gradient                   ...        0 min,  0.390 sec
 * total energy  :  -512.4958839 Eh     change       -0.2342252E-03 Eh
   gradient norm :     0.0335248 Eh/α   predicted    -0.1723879E-02 ( 635.99%)
   displ. norm   :     0.1745969 α      lambda       -0.2459184E-02
   maximum displ.:     0.1147725 α      in ANC's #8, #6, #9, ...

........................................................................
.............................. CYCLE   27 ..............................
........................................................................

 iter      E             dE          RMSdq      gap      omega  full diag
   1   -518.6143111 -0.518614E+03  0.429E-02    0.01       0.0  T
   2   -518.4924422  0.121869E+00  0.623E-01    0.01       1.0  T
   3   -518.6074980 -0.115056E+00  0.145E-01    0.01       1.0  T
[...]
    23   6 C       26   6 C                                       1.4170051
    26   6 C       27   6 C                                       1.4083007
    20   6 C       29   1 H                                       1.0819895
    21   6 C       30   1 H                                       1.0793408
    25   6 C       31   1 H                                       1.0806873
    24   6 C       32   1 H                                       1.0795221
    26   6 C       33   1 H                                       1.0878899
    28   6 C       35   8 O                                       1.2276123
    27   6 C       36   7 N                                       1.3821363
    28   6 C       37   7 N                                       1.4090175
    36   7 N       38   6 C                                       1.3176676
    37   7 N       38   6 C                                       1.4144876
    37   7 N       39   6 C                                       1.4481406
    39   6 C       41   1 H                                       1.1007350
    39   6 C       42   1 H                                       1.0962487
    43   6 C       44   8 O                                       1.1756609
    40   6 C       45   7 N                                       1.4273361
    40   6 C       47   1 H                                       1.0950636
    48   6 C       49   6 C                                       1.5262704
    49   6 C       50   1 H                                       1.0838500
    49   6 C       51   1 H                                       1.0848147
    49   6 C       52   1 H                                       1.0868448
    48   6 C       53   1 H                                       1.0959465
    48   6 C       54   8 O                                       1.4044607
    54   8 O       55   1 H                                       0.9674054
    56   7 N       58   6 C                                       1.4121249
    58   6 C       59   1 H                                       1.0983882
    60   6 C       61   1 H                                       1.0908202
    60   6 C       62   1 H                                       1.0938513
    63   6 C       64   6 C                                       1.3937627
    64   6 C       65   1 H                                       1.0801130
    64   6 C       66   6 C                                       1.3805561
    66   6 C       67   1 H                                       1.0789424
    66   6 C       68   6 C                                       1.3955329
    68   6 C       69   8 O                                       1.3637117
    69   8 O       70   1 H                                       0.9701621
    68   6 C       71   6 C                                       1.3999448
    71   6 C       72   1 H                                       1.0795201
    63   6 C       73   6 C                                       1.3953210
    71   6 C       73   6 C                                       1.3884148
    73   6 C       74   1 H                                       1.0787009
    75   6 C       76   8 O                                       1.2222244
    75   6 C       77   7 N                                       1.3363108
    77   7 N       78   1 H                                       1.0101645
    77   7 N       79   6 C                                       1.4432413
    79   6 C       80   1 H                                       1.0971444
    79   6 C       81   6 C                                       1.5191571
    81   6 C       82   1 H                                       1.0907699
    81   6 C       83   1 H                                       1.0922201
    84   6 C       85   8 O                                       1.2269854
    84   6 C       86   7 N                                       1.3317726
    86   7 N       87   1 H                                       1.0089031
    86   7 N       88   1 H                                       1.0071231
    89   6 C       90   8 O                                       1.2264001
    89   6 C       91   7 N                                       1.3340252
    91   7 N       92   1 H                                       1.0094605
    91   7 N       93   6 C                                       1.4487571
    93   6 C       94   1 H                                       1.0916811
    93   6 C       95   6 C                                       1.5204921
    95   6 C       96   1 H                                       1.0912900
    95   6 C       97   1 H                                       1.0899522
    99   6 C      100   8 O                                       1.2160696
    99   6 C      101   7 N                                       1.3348290
   101   7 N      102   1 H                                       1.0141594
   101   7 N      103   6 C                                       1.4544059
   103   6 C      104   1 H                                       1.0991967
   105   6 C      106   1 H                                       1.0937746
   105   6 C      107   1 H                                       1.0866121
   105   6 C      108   6 C                                       1.4812638
   108   6 C      109   7 N                                       1.3733788
   109   7 N      110   1 H                                       1.0064176
   109   7 N      111   6 C                                       1.3350552
   111   6 C      112   1 H                                       1.0691635
   111   6 C      113   7 N                                       1.3202231
   108   6 C      114   6 C                                       1.3681863
   113   7 N      114   6 C                                       1.3668898
   114   6 C      115   1 H                                       1.0673041
   116   6 C      117   8 O                                       1.2202966
   116   6 C      118   7 N                                       1.3486006
   118   7 N      119   1 H                                       1.0109103
   118   7 N      120   6 C                                       1.4382624
   120   6 C      121   1 H                                       1.0946653
   120   6 C      122   6 C                                       1.5320251
   122   6 C      123   1 H                                       1.0920633
   122   6 C      124   1 H                                       1.0919357
   125   6 C      126   8 O                                       1.2222210
   125   6 C      127   7 N                                       1.3252087
   127   7 N      128   1 H                                       1.0081329
   127   7 N      129   1 H                                       1.0055629
   130   6 C      131   8 O                                       1.1731363
   132   7 N      134   6 C                                       1.3532072
   134   6 C      135   1 H                                       1.0895708
   136   6 C      137   1 H                                       1.0881986
   136   6 C      138   1 H                                       1.0910322
   136   6 C      139   6 C                                       1.5309476
   139   6 C      140   1 H                                       1.0911008
   139   6 C      141   1 H                                       1.0887326
   139   6 C      142   6 C                                       1.5323748
   142   6 C      143   1 H                                       1.0951253
   142   6 C      144   1 H                                       1.0951971
   142   6 C      145   7 N                                       1.4484048
   145   7 N      146   1 H                                       1.0081359
   145   7 N      147   6 C                                       1.3318051
   147   6 C      148   7 N                                       1.3271742
   148   7 N      149   1 H                                       1.0042549
   148   7 N      150   1 H                                       1.0054246
   147   6 C      151   7 N                                       1.3297905
   151   7 N      152   1 H                                       1.0050362
   151   7 N      153   1 H                                       1.0054632
   154   6 C      155   8 O                                       1.1602925
   156   7 N      158   6 C                                       1.4080424
   158   6 C      159   1 H                                       1.0935373
   160   6 C      161   1 H                                       1.0934924
   160   6 C      162   1 H                                       1.0954737
   160   6 C      163   8 O                                       1.3948682
   163   8 O      164   1 H                                       0.9677915
   165   6 C      166   8 O                                       1.2291821
   165   6 C      167   7 N                                       1.3300860
   167   7 N      168   1 H                                       1.0169252
   167   7 N      169   6 C                                       1.4458667
   169   6 C      170   1 H                                       1.0964107
   171   6 C      172   1 H                                       1.1045714
   171   6 C      173   6 C                                       1.5257867
   173   6 C      174   1 H                                       1.0863406
   173   6 C      175   1 H                                       1.0837938
   173   6 C      176   1 H                                       1.0849816
   171   6 C      177   8 O                                       1.4153601
   177   8 O      178   1 H                                       0.9688736
   179   6 C      180   8 O                                       1.2304586
   179   6 C      181   7 N                                       1.3405644
   181   7 N      182   1 H                                       1.0172435
   181   7 N      183   6 C                                       1.4442467
   183   6 C      184   1 H                                       1.1033022
   185   6 C      186   1 H                                       1.0892802
   185   6 C      187   1 H                                       1.0955702
   189   6 C      190   8 O                                       1.2275969
   189   6 C      191   7 N                                       1.3249116
   191   7 N      192   1 H                                       1.0119535
   191   7 N      193   6 C                                       1.4342694
   193   6 C      194   1 H                                       1.0929586
   195   6 C      196   1 H                                       1.0992213
   195   6 C      197   1 H                                       1.0852465
   195   6 C      198   8 O                                       1.4112732
   198   8 O      199   1 H                                       0.9686503
   200   6 C      201   8 O                                       1.2126191
   200   6 C      202   7 N                                       1.3310509
   202   7 N      203   1 H                                       1.0189158
   202   7 N      204   6 C                                       1.4437878
   204   6 C      205   1 H                                       1.0912565
   204   6 C      206   6 C                                       1.5325687
   206   6 C      207   1 H                                       1.0860833
   206   6 C      208   1 H                                       1.0873353
   206   6 C      209   1 H                                       1.0863498
   210   6 C      211   8 O                                       1.1776002
   212   7 N      214   6 C                                       1.4216194
   214   6 C      215   1 H                                       1.0927446
   216   6 C      217   1 H                                       1.0905137
   216   6 C      218   1 H                                       1.0934967
   216   6 C      219   6 C                                       1.5130088
   219   6 C      220   1 H                                       1.0940847
   219   6 C      221   6 C                                       1.5231056
   221   6 C      222   1 H                                       1.0918854
   221   6 C      223   1 H                                       1.0833678
   221   6 C      224   1 H                                       1.0837668
   219   6 C      225   6 C                                       1.5228251
   225   6 C      226   1 H                                       1.0875244
   225   6 C      227   1 H                                       1.0817583
   225   6 C      228   1 H                                       1.0858133
   229   6 C      230   8 O                                       1.2169442
   229   6 C      231   7 N                                       1.3215528
   231   7 N      232   1 H                                       1.0094181
   231   7 N      233   6 C                                       1.4317553
   233   6 C      234   1 H                                       1.0901242
   233   6 C      235   6 C                                       1.5305937
   235   6 C      236   1 H                                       1.0903021
   235   6 C      237   1 H                                       1.0927964
   235   6 C      238   6 C                                       1.5211935
   238   6 C      239   1 H                                       1.0909210
   238   6 C      240   6 C                                       1.5304144
   240   6 C      241   1 H                                       1.0846455
   240   6 C      242   1 H                                       1.0849904
   240   6 C      243   1 H                                       1.0855982
   238   6 C      244   6 C                                       1.5251665
   244   6 C      245   1 H                                       1.0891010
   244   6 C      246   1 H                                       1.0789740
   244   6 C      247   1 H                                       1.0891322
   248   6 C      249   8 O                                       1.2318776
   248   6 C      250   7 N                                       1.3309476
   250   7 N      251   1 H                                       1.0117332
   250   7 N      252   6 C                                       1.4479048
   252   6 C      253   1 H                                       1.0897939
   252   6 C      254   6 C                                       1.5293282
   254   6 C      255   1 H                                       1.0824046
   254   6 C      256   1 H                                       1.0934665
   254   6 C      257   6 C                                       1.5165442
   257   6 C      258   1 H                                       1.0869556
   257   6 C      259   1 H                                       1.0932205
   263   6 C      264   8 O                                       1.2217651
   263   6 C      265   7 N                                       1.3188948
   265   7 N      266   1 H                                       1.0150320
   265   7 N      267   6 C                                       1.4356404
   267   6 C      268   1 H                                       1.0963636
   267   6 C      269   6 C                                       1.5282618
   269   6 C      270   1 H                                       1.0925795
   269   6 C      271   1 H                                       1.0895796
   272   6 C      273   6 C                                       1.3906168
   273   6 C      274   1 H                                       1.0795360
   273   6 C      275   6 C                                       1.3861112
   275   6 C      276   1 H                                       1.0778004
   275   6 C      277   6 C                                       1.3870672
   277   6 C      278   1 H                                       1.0748226
   277   6 C      279   6 C                                       1.3877151
   279   6 C      280   1 H                                       1.0748533
   272   6 C      281   6 C                                       1.3886154
   279   6 C      281   6 C                                       1.3817221
   281   6 C      282   1 H                                       1.0822616
   283   6 C      284   8 O                                       1.2311541
   283   6 C      285   7 N                                       1.3172947
   285   7 N      286   1 H                                       1.0092569
   285   7 N      287   6 C                                       1.4265728
   287   6 C      288   1 H                                       1.0942919
   289   6 C      290   1 H                                       1.0971860
   289   6 C      291   6 C                                       1.5216321
   291   6 C      292   1 H                                       1.0879810
   291   6 C      293   1 H                                       1.0845092
   291   6 C      294   1 H                                       1.0864630
   289   6 C      295   6 C                                       1.5265289
   295   6 C      296   1 H                                       1.0874429
   295   6 C      297   1 H                                       1.0838372
   295   6 C      298   1 H                                       1.0892484
   299   6 C      300   8 O                                       1.2126280
   299   6 C      301   7 N                                       1.3327742
   301   7 N      302   1 H                                       1.0148769
   301   7 N      303   6 C                                       1.4281383
   303   6 C      304   1 H                                       1.0922971
   305   6 C      306   1 H                                       1.0973023
   305   6 C      307   6 C                                       1.5048820
   307   6 C      308   1 H                                       1.0858068
   307   6 C      309   1 H                                       1.0875861
   307   6 C      310   1 H                                       1.0866737
   305   6 C      311   8 O                                       1.3919057
   311   8 O      312   1 H                                       0.9643675 (min)
   313   6 C      314   8 O                                       1.1818127

 * 6 distinct bonds (by element types)

   Z      Z             #   av. dist./Å        max./Å        min./Å
   1 H    6 C         114     1.0887218     1.1045714     1.0673041
   6 C    6 C          43     1.4676181     1.5367270     1.3584621
   1 H    7 N          23     1.0101958     1.0189158     1.0042549
   6 C    7 N          47     1.3802345     1.4544059     1.3172947
   1 H    8 O           6     0.9678751     0.9701621     0.9643675
   6 C    8 O          28     1.2498520     1.4153601     1.1602925


optimized geometry written to: xtbopt.xyz


           -------------------------------------------------
          | TOTAL ENERGY             -512.498192918597 Eh   |
          | GRADIENT NORM               0.002580874555 Eh/α |
          | HOMO-LUMO GAP               0.011747504538 eV   |
           -------------------------------------------------

------------------------------------------------------------------------
 * finished run on 2023/12/04 at 22:04:12.951     
------------------------------------------------------------------------
 total:
 * wall-time:     0 d,  0 h,  4 min, 21.443 sec
 *  cpu-time:     0 d,  1 h, 36 min, 33.779 sec
 * ratio c/w:    22.161 speedup
 SCF:
 * wall-time:     0 d,  0 h,  0 min, 12.492 sec
 *  cpu-time:     0 d,  0 h,  4 min, 33.886 sec
 * ratio c/w:    21.925 speedup
 ANC optimizer:
 * wall-time:     0 d,  0 h,  4 min,  8.736 sec
 *  cpu-time:     0 d,  1 h, 31 min, 55.672 sec
 * ratio c/w:    22.175 speedup
