      -----------------------------------------------------------      
     |                   =====================                   |     
     |                           x T B                           |     
     |                   =====================                   |     
     |                         S. Grimme                         |     
     |          Mulliken Center for Theoretical Chemistry        |     
     |                    University of Bonn                     |     
      -----------------------------------------------------------      

   * xtb version 6.6.1 (8d0f1dd) compiled by 'conda@1efc2f54142f' on 2023-08-01

   xtb is free software: you can redistribute it and/or modify it under
   the terms of the GNU Lesser General Public License as published by
   the Free Software Foundation, either version 3 of the License, or
   (at your option) any later version.
   
   xtb is distributed in the hope that it will be useful,
   but WITHOUT ANY WARRANTY; without even the implied warranty of
   MERCHANTABILITY or FITNESS FOR A PARTICULAR PURPOSE.  See the
   GNU Lesser General Public License for more details.
   
   Cite this work as:
   * C. Bannwarth, E. Caldeweyher, S. Ehlert, A. Hansen, P. Pracht,
     J. Seibert, S. Spicher, S. Grimme, WIREs Comput. Mol. Sci., 2020, 11,
     e01493. DOI: 10.1002/wcms.1493
   
   for GFN2-xTB:
   * C. Bannwarth, S. Ehlert and S. Grimme., J. Chem. Theory Comput., 2019,
     15, 1652-1671. DOI: 10.1021/acs.jctc.8b01176
   for GFN1-xTB:
   * S. Grimme, C. Bannwarth, P. Shushkov, J. Chem. Theory Comput., 2017,
     13, 1989-2009. DOI: 10.1021/acs.jctc.7b00118
   for GFN0-xTB:
   * P. Pracht, E. Caldeweyher, S. Ehlert, S. Grimme, ChemRxiv, 2019, preprint.
     DOI: 10.26434/chemrxiv.8326202.v1
   for GFN-FF:
   * S. Spicher and S. Grimme, Angew. Chem. Int. Ed., 2020, 59, 15665-15673.
     DOI: 10.1002/anie.202004239
   
   for ALPB and GBSA implicit solvation:
   * S. Ehlert, M. Stahn, S. Spicher, S. Grimme, J. Chem. Theory Comput.,
     2021, 17, 4250-4261. DOI: 10.1021/acs.jctc.1c00471
   
   for DFT-D4:
   * E. Caldeweyher, C. Bannwarth and S. Grimme, J. Chem. Phys., 2017,
     147, 034112. DOI: 10.1063/1.4993215
   * E. Caldeweyher, S. Ehlert, A. Hansen, H. Neugebauer, S. Spicher,
     C. Bannwarth and S. Grimme, J. Chem. Phys., 2019, 150, 154122.
     DOI: 10.1063/1.5090222
   * E. Caldeweyher, J.-M. Mewes, S. Ehlert and S. Grimme, Phys. Chem. Chem. Phys.
     2020, 22, 8499-8512. DOI: 10.1039/D0CP00502A
   
   for sTDA-xTB:
   * S. Grimme and C. Bannwarth, J. Chem. Phys., 2016, 145, 054103.
     DOI: 10.1063/1.4959605
   
   in the mass-spec context:
   * V. Asgeirsson, C. Bauer and S. Grimme, Chem. Sci., 2017, 8, 4879.
     DOI: 10.1039/c7sc00601b
   * J. Koopman and S. Grimme, ACS Omega 2019, 4, 12, 15120-15133.
     DOI: 10.1021/acsomega.9b02011
   
   for metadynamics refer to:
   * S. Grimme, J. Chem. Theory Comput., 2019, 155, 2847-2862
     DOI: 10.1021/acs.jctc.9b00143
   
   for SPH calculations refer to:
   * S. Spicher and S. Grimme, J. Chem. Theory Comput., 2021, 17, 1701-1714
     DOI: 10.1021/acs.jctc.0c01306
   
   with help from (in alphabetical order)
   P. Atkinson, C. Bannwarth, F. Bohle, G. Brandenburg, E. Caldeweyher
   M. Checinski, S. Dohm, S. Ehlert, S. Ehrlich, I. Gerasimov, C. Hölzer
   A. Katbashev, J. Koopman, C. Lavigne, S. Lehtola, F. März, M. Müller,
   F. Musil, H. Neugebauer, J. Pisarek, C. Plett, P. Pracht, F. Pultar,
   J. Seibert, P. Shushkov, S. Spicher, M. Stahn, M. Steiner, T. Strunk,
   J. Stückrath, T. Rose, and J. Unsleber
   
 * started run on 2023/12/04 at 23:53:11.178     

           -------------------------------------------------
          |                Calculation Setup                |
           -------------------------------------------------

          program call               : xtb initial.xyz --opt loose --gfn 2 --alpb water --input opt.in
          coordinate file            : initial.xyz
          omp threads                :                    24

   ID    Z sym.   atoms
    1    7 N      1, 36, 37, 45, 56, 77, 86, 91, 101, 109, 113, 118, 127,
                  132, 145, 148, 151, 156, 167, 181, 191, 202, 212, 231, 250,
                  265, 285, 301
    2    1 H      2, 4, 6, 7, 9, 11-13, 15-17, 29-33, 41, 42, 46, 47, 50-53,
                  55, 57, 59, 61, 62, 65, 67, 70, 72, 74, 78, 80, 82, 83, 87,
                  88, 92, 94, 96, 97, 102, 104, 106, 107, 110, 112, 115, 119,
                  121, 123, 124, 128, 129, 133, 135, 137, 138, 140, 141, 143,
                  144, 146, 149, 150, 152, 153, 157, 159, 161, 162, 164, 168,
                  170, 172, 174-176, 178, 182, 184, 186, 187, 192, 194, 196,
                  197, 199, 203, 205, 207-209, 213, 215, 217, 218, 220,
                  222-224, 226-228, 232, 234, 236, 237, 239, 241-243,
                  245-247, 251, 253, 255, 256, 258, 259, 266, 268, 270, 271,
                  274, 276, 278, 280, 282, 286, 288, 290, 292-294, 296-298,
                  302, 304, 306, 308-310, 312
    3    6 C      3, 5, 8, 10, 14, 18, 20-28, 38-40, 43, 48, 49, 58, 60, 63,
                  64, 66, 68, 71, 73, 75, 79, 81, 84, 89, 93, 95, 99, 103,
                  105, 108, 111, 114, 116, 120, 122, 125, 130, 134, 136, 139,
                  142, 147, 154, 158, 160, 165, 169, 171, 173, 179, 183, 185,
                  189, 193, 195, 200, 204, 206, 210, 214, 216, 219, 221, 225,
                  229, 233, 235, 238, 240, 244, 248, 252, 254, 257, 260, 263,
                  267, 269, 272, 273, 275, 277, 279, 281, 283, 287, 289, 291,
                  295, 299, 303, 305, 307, 313
    4    8 O      19, 34, 35, 44, 54, 69, 76, 85, 90, 100, 117, 126, 131,
                  155, 163, 166, 177, 180, 190, 198, 201, 211, 230, 249, 261,
                  262, 264, 284, 300, 311, 314
    5   16 S      98, 188

molecular fragmentation (1/2 indicates fragments):
111111111111111111122222222222222222222222222222222222222222222222222222
222222222222222222222222222222222222222222222222222222222222222222222222
222222222222222222222222222222222222222222222222222222222222222222222222
222222222222222222222222222222222222222222222222222222222222222222222222
22222222222222222222222222
# atoms in fragment 1/2:    19   295
 fragment masses (1/2) :      113.16     2238.44
CMA distance (Bohr)    :  17.939
constraining FC (au)   :  0.5000

           -------------------------------------------------
          |                 G F N 2 - x T B                 |
           -------------------------------------------------

        Reference                      10.1021/acs.jctc.8b01176
      * Hamiltonian:
        H0-scaling (s, p, d)           1.850000    2.230000    2.230000
        zeta-weighting                 0.500000
      * Dispersion:
        s8                             2.700000
        a1                             0.520000
        a2                             5.000000
        s9                             5.000000
      * Repulsion:
        kExp                           1.500000    1.000000
        rExp                           1.000000
      * Coulomb:
        alpha                          2.000000
        third order                    shell-resolved
        anisotropic                    true
        a3                             3.000000
        a5                             4.000000
        cn-shift                       1.200000
        cn-exp                         4.000000
        max-rad                        5.000000

      * Solvation model:               ALPB
        Solvent                        water
        Parameter file                 internal GFN2-xTB/ALPB
        Dielectric constant                8.0200E+01
        Reference state                gsolv [1 M gas/solution]
        Free energy shift                  1.0808E-03 Eh       6.7819E-01 kcal/mol
        Temperature                        2.9815E+02 K
        Density                            1.0000E+00 kg/L
        Solvent mass                       1.8000E+01 g/mol
        Interaction kernel             P16
        Born radius scaling (c1)           1.4744E+00
        Born radii integrator          GBOBC
        Born offset                        0.0000E+00 a0       0.0000E+00 AA
        H-bond correction              true
        Ion screening                  false
        Surface tension                    1.0000E-05 Eh       1.5569E+01 dyn/cm
        Grid points                               230 per atom

          ...................................................
          :                      SETUP                      :
          :.................................................:
          :  # basis functions                 821          :
          :  # atomic orbitals                 819          :
          :  # shells                          481          :
          :  # electrons                       906          :
          :  max. iterations                   250          :
          :  Hamiltonian                  GFN2-xTB          :
          :  restarted?                      false          :
          :  GBSA solvation                   true          :
          :  PC potential                    false          :
          :  electronic temp.          300.0000000     K    :
          :  accuracy                    1.0000000          :
          :  -> integral cutoff          0.2500000E+02      :
          :  -> integral neglect         0.1000000E-07      :
          :  -> SCF convergence          0.1000000E-05 Eh   :
          :  -> wf. convergence          0.1000000E-03 e    :
          :  Broyden damping             0.4000000          :
          ...................................................

 iter      E             dE          RMSdq      gap      omega  full diag
   1   -517.8809261 -0.517881E+03  0.470E+00    0.41       0.0  T
   2   -509.9762925  0.790463E+01  0.563E+00    0.24       1.0  T
   3   -518.7884542 -0.881216E+01  0.284E+00    0.06       1.0  T
   4   -518.8429028 -0.544486E-01  0.254E+00    0.05       1.0  T
   5   -518.8515549 -0.865214E-02  0.272E+00    0.06       1.0  T
   6   -519.1716491 -0.320094E+00  0.187E+00    0.19       1.0  T
   7   -518.9537267  0.217922E+00  0.287E+00    0.04       1.0  T
   8   -519.6016577 -0.647931E+00  0.163E+00    0.01       1.0  T
   9   -519.5143932  0.872645E-01  0.157E+00    0.10       1.0  T
  10   -519.5195818 -0.518862E-02  0.185E+00    0.00       1.0  T
  11   -519.3365112  0.183071E+00  0.189E+00    0.01       1.0  T
  12   -519.1119386  0.224573E+00  0.192E+00    0.05       1.0  T
  13   -519.8152345 -0.703296E+00  0.125E+00    0.01       1.0  T
  14   -519.5175730  0.297662E+00  0.156E+00    0.07       1.0  T
  15   -519.6207102 -0.103137E+00  0.144E+00    0.04       1.0  T
  16   -519.7335893 -0.112879E+00  0.128E+00    0.04       1.0  T
  17   -519.4394255  0.294164E+00  0.187E+00    0.03       1.0  T
  18   -519.8271484 -0.387723E+00  0.158E+00    0.00       1.0  T
  19   -519.8791288 -0.519804E-01  0.137E+00    0.02       1.0  T
  20   -520.0307700 -0.151641E+00  0.103E+00    0.01       1.0  T
  21   -520.0646599 -0.338899E-01  0.986E-01    0.01       1.0  T
  22   -519.9561752  0.108485E+00  0.131E+00    0.01       1.0  T
  23   -519.7090606  0.247115E+00  0.167E+00    0.02       1.0  T
  24   -520.1456261 -0.436566E+00  0.633E-01    0.00       1.0  T
  25   -520.1718937 -0.262677E-01  0.548E-01    0.00       1.0  T
  26   -520.2068418 -0.349480E-01  0.430E-01    0.00       1.0  T
  27   -520.1742657  0.325760E-01  0.591E-01    0.01       1.0  T
  28   -520.2081798 -0.339140E-01  0.552E-01    0.00       1.0  T
  29   -520.2463697 -0.381899E-01  0.305E-01    0.00       1.0  T
  30   -520.2576205 -0.112509E-01  0.193E-01    0.00       1.0  T
  31   -520.2658943 -0.827380E-02  0.111E-01    0.00       1.0  T
  32   -520.2590983  0.679602E-02  0.178E-01    0.00       1.0  T
  33   -520.2630279 -0.392962E-02  0.138E-01    0.00       1.0  T
  34   -520.2643427 -0.131479E-02  0.122E-01    0.01       1.0  T
  35   -520.2664920 -0.214929E-02  0.100E-01    0.00       1.0  T
  36   -520.2677490 -0.125704E-02  0.785E-02    0.00       1.0  T
  37   -520.2684448 -0.695735E-03  0.645E-02    0.00       1.0  T
  38   -520.2693239 -0.879142E-03  0.420E-02    0.00       1.0  T
  39   -520.2694184 -0.944746E-04  0.367E-02    0.00       1.0  T
  40   -520.2696222 -0.203846E-03  0.232E-02    0.00       1.0  T
  41   -520.2696266 -0.436392E-05  0.199E-02    0.00       1.0  T
  42   -520.2697205 -0.938614E-04  0.870E-03    0.00       1.0  T
  43   -520.2697417 -0.212283E-04  0.397E-03    0.00       1.4  T
  44   -520.2697435 -0.177330E-05  0.289E-03    0.00       2.0  T
  45   -520.2697448 -0.138382E-05  0.150E-03    0.00       3.8  T
  46   -520.2697453 -0.493254E-06  0.880E-04    0.00       6.4  T
  47   -520.2697455 -0.167069E-06  0.466E-04    0.00      12.1  T

   *** convergence criteria satisfied after 47 iterations ***

         #    Occupation            Energy/Eh            Energy/eV
      -------------------------------------------------------------
         1        2.0000           -0.7694508             -20.9378
       ...           ...                  ...                  ...
       447        1.9272           -0.3509629              -9.5502
       448        1.7533           -0.3497135              -9.5162
       449        1.3246           -0.3484904              -9.4829
       450        1.3173           -0.3484750              -9.4825
       451        1.2275           -0.3482905              -9.4775
       452        1.2051           -0.3482458              -9.4763
       453        1.0912           -0.3480243              -9.4702 (HOMO)
       454        1.0452           -0.3479365              -9.4678 (LUMO)
       455        1.0355           -0.3479180              -9.4673
       456        1.0227           -0.3478937              -9.4667
       457        1.0038           -0.3478578              -9.4657
       458        0.0479           -0.3443285              -9.3697
       ...           ...                  ...                  ...
       819                          0.7420760              20.1929
      -------------------------------------------------------------
                  HL-Gap            0.0000878 Eh            0.0024 eV
             Fermi-level           -0.3478506 Eh           -9.4655 eV

 SCC (total)                   0 d,  0 h,  0 min, 12.208 sec
 SCC setup                      ...        0 min,  0.069 sec (  0.565%)
 Dispersion                     ...        0 min,  0.034 sec (  0.281%)
 classical contributions        ...        0 min,  0.031 sec (  0.254%)
 integral evaluation            ...        0 min,  0.036 sec (  0.292%)
 iterations                     ...        0 min, 11.661 sec ( 95.519%)
 molecular gradient             ...        0 min,  0.369 sec (  3.023%)
 printout                       ...        0 min,  0.008 sec (  0.065%)

         :::::::::::::::::::::::::::::::::::::::::::::::::::::
         ::                     SUMMARY                     ::
         :::::::::::::::::::::::::::::::::::::::::::::::::::::
         :: total energy            -512.691729576308 Eh    ::
         :: total w/o Gsasa/hb      -512.640047809114 Eh    ::
         :: gradient norm              1.053910246085 Eh/a0 ::
         :: HOMO-LUMO gap              0.002389977940 eV    ::
         ::.................................................::
         :: SCC energy              -520.269745503092 Eh    ::
         :: -> isotropic ES            2.098799602869 Eh    ::
         :: -> anisotropic ES         -0.107484350011 Eh    ::
         :: -> anisotropic XC          0.151875292909 Eh    ::
         :: -> dispersion             -0.428512603570 Eh    ::
         :: -> Gsolv                  -0.831735529778 Eh    ::
         ::    -> Gelec               -0.780053762584 Eh    ::
         ::    -> Gsasa                0.003005506614 Eh    ::
         ::    -> Ghb                 -0.055768033505 Eh    ::
         ::    -> Gshift               0.001080759698 Eh    ::
         :: repulsion energy           7.542762153250 Eh    ::
         :: add. restraining           0.000000000000 Eh    ::
         :: total charge              -3.000000000000 e     ::
         :::::::::::::::::::::::::::::::::::::::::::::::::::::

      ----------------------------------------------------------- 
     |                   =====================                   |
     |                        A N C O P T                        |
     |                   =====================                   |
     |               Approximate Normal Coordinate               |
     |                Rational Function Optimizer                |
      ----------------------------------------------------------- 

          ...................................................
          :                      SETUP                      :
          :.................................................:
          :   optimization level             loose          :
          :   max. optcycles                   628          :
          :   ANC micro-cycles                  20          :
          :   degrees of freedom               936          :
          :.................................................:
          :   RF solver                   davidson          :
          :   write xtbopt.log                true          :
          :   linear?                        false          :
          :   energy convergence         0.5000000E-04 Eh   :
          :   grad. convergence          0.4000000E-02 Eh/α :
          :   maxmium RF displ.          1.0000000          :
          :   Hlow (freq-cutoff)         0.1000000E-01      :
          :   Hmax (freq-cutoff)         5.0000000          :
          :   S6 in model hess.         20.0000000          :
          ...................................................

generating ANC from model Hessian ...
Using Lindh-Hessian (1995)
 Shifting diagonal of input Hessian by    1.7376943349124013E-004
 Lowest  eigenvalues of input Hessian
    0.000000    0.000000    0.000000    0.000000    0.000000    0.000000
    0.010000    0.010397    0.011410    0.012255    0.012421    0.012792
    0.012965    0.012975    0.012999    0.013166    0.013252    0.013327
 Highest eigenvalues
    2.865079    2.878549    2.924363    2.947839    2.966010    3.055276


........................................................................
.............................. CYCLE    1 ..............................
........................................................................

 iter      E             dE          RMSdq      gap      omega  full diag
   1   -520.2697455 -0.520270E+03  0.318E-04    0.00       0.0  T
   2   -520.2696880  0.575560E-04  0.126E-02    0.00       1.0  T
   3   -520.2697452 -0.572237E-04  0.105E-03    0.00       5.4  T
   4   -520.2697453 -0.122680E-06  0.833E-04    0.00       6.8  T
   5   -520.2697448  0.488847E-06  0.161E-03    0.00       3.5  T
   6   -520.2697452 -0.348760E-06  0.103E-03    0.00       5.5  T
   7   -520.2697455 -0.343852E-06  0.401E-04    0.00      14.1  T
     SCC iter.                  ...        0 min,  1.747 sec
     gradient                   ...        0 min,  0.374 sec
 * total energy  :  -512.6917296 Eh     change       -0.1204819E-07 Eh
   gradient norm :     1.0539109 Eh/α   predicted     0.0000000E+00 (-100.00%)
   displ. norm   :     0.6644355 α      lambda       -0.6456620E+00
   maximum displ.:     0.1422579 α      in ANC's #542, #556, #540, ...

........................................................................
.............................. CYCLE    2 ..............................
........................................................................

 iter      E             dE          RMSdq      gap      omega  full diag
   1   -519.4117640 -0.519412E+03  0.140E+00    0.17       0.0  T
   2   -510.2880117  0.912375E+01  0.542E+00    0.03       1.0  T
   3   -519.0862472 -0.879824E+01  0.206E+00    0.07       1.0  T
   4   -518.3515538  0.734693E+00  0.287E+00    0.06       1.0  T
   5   -518.9440891 -0.592535E+00  0.196E+00    0.29       1.0  T
   6   -519.3732018 -0.429113E+00  0.147E+00    0.01       1.0  T
   7   -519.5472314 -0.174030E+00  0.129E+00    0.02       1.0  T
   8   -519.6536425 -0.106411E+00  0.113E+00    0.01       1.0  T
   9   -519.9010155 -0.247373E+00  0.736E-01    0.01       1.0  T
  10   -519.6529562  0.248059E+00  0.109E+00    0.00       1.0  T
  11   -519.6947576 -0.418014E-01  0.104E+00    0.03       1.0  T
  12   -519.8170189 -0.122261E+00  0.822E-01    0.02       1.0  T
  13   -519.9219592 -0.104940E+00  0.608E-01    0.01       1.0  T
  14   -520.0142692 -0.923100E-01  0.344E-01    0.00       1.0  T
  15   -520.0225059 -0.823665E-02  0.327E-01    0.00       1.0  T
  16   -520.0127207  0.978518E-02  0.359E-01    0.00       1.0  T
  17   -520.0128560 -0.135302E-03  0.372E-01    0.01       1.0  T
  18   -520.0579655 -0.451095E-01  0.690E-02    0.00       1.0  T
  19   -520.0575856  0.379870E-03  0.774E-02    0.00       1.0  T
  20   -520.0591261 -0.154048E-02  0.313E-02    0.00       1.0  T
  21   -520.0588954  0.230670E-03  0.417E-02    0.01       1.0  T
  22   -520.0592414 -0.345983E-03  0.236E-02    0.00       1.0  T
  23   -520.0591803  0.611344E-04  0.259E-02    0.00       1.0  T
  24   -520.0589323  0.247997E-03  0.370E-02    0.01       1.0  T
  25   -520.0593391 -0.406830E-03  0.160E-02    0.01       1.0  T
  26   -520.0593869 -0.478160E-04  0.103E-02    0.01       1.0  T
  27   -520.0593955 -0.852413E-05  0.965E-03    0.01       1.0  T
  28   -520.0594166 -0.211133E-04  0.437E-03    0.01       1.3  T
  29   -520.0594217 -0.517676E-05  0.240E-03    0.01       2.4  T
  30   -520.0594216  0.107437E-06  0.239E-03    0.01       2.4  T
  31   -520.0594234 -0.171719E-05  0.792E-04    0.01       7.1  T
  32   -520.0594235 -0.101437E-06  0.621E-04    0.01       9.1  T
  33   -520.0594235 -0.704730E-07  0.450E-04    0.01      12.6  T
     SCC iter.                  ...        0 min,  8.052 sec
     gradient                   ...        0 min,  0.393 sec
 * total energy  :  -513.1767138 Eh     change       -0.4849842E+00 Eh
   gradient norm :     0.5187954 Eh/α   predicted    -0.4653600E+00 (  -4.05%)
   displ. norm   :     0.6213205 α      lambda       -0.2866446E+00
   maximum displ.:     0.1139612 α      in ANC's #542, #556, #545, ...

........................................................................
.............................. CYCLE    3 ..............................
........................................................................

 iter      E             dE          RMSdq      gap      omega  full diag
   1   -519.3340050 -0.519334E+03  0.129E+00    0.14       0.0  T
   2   -510.5020699  0.883194E+01  0.537E+00    0.04       1.0  T
   3   -518.8560791 -0.835401E+01  0.189E+00    0.04       1.0  T
   4   -518.3390816  0.516998E+00  0.309E+00    0.04       1.0  T
   5   -519.1089391 -0.769858E+00  0.168E+00    0.00       1.0  T
   6   -519.2933345 -0.184395E+00  0.146E+00    0.01       1.0  T
   7   -519.2669880  0.263465E-01  0.141E+00    0.05       1.0  T
   8   -519.4630542 -0.196066E+00  0.114E+00    0.01       1.0  T
   9   -519.6241776 -0.161123E+00  0.892E-01    0.00       1.0  T
  10   -519.5260089  0.981687E-01  0.100E+00    0.04       1.0  T
  11   -519.4508431  0.751658E-01  0.111E+00    0.08       1.0  T
  12   -519.4936488 -0.428057E-01  0.105E+00    0.05       1.0  T
  13   -519.8207857 -0.327137E+00  0.438E-01    0.01       1.0  T
  14   -519.7556524  0.651333E-01  0.589E-01    0.01       1.0  T
  15   -519.8742264 -0.118574E+00  0.168E-01    0.01       1.0  T
  16   -519.8549678  0.192586E-01  0.272E-01    0.00       1.0  T
  17   -519.8729244 -0.179567E-01  0.170E-01    0.00       1.0  T
  18   -519.8812427 -0.831826E-02  0.728E-02    0.01       1.0  T
  19   -519.8798533  0.138936E-02  0.914E-02    0.00       1.0  T
  20   -519.8816905 -0.183720E-02  0.542E-02    0.01       1.0  T
  21   -519.8821190 -0.428414E-03  0.355E-02    0.01       1.0  T
  22   -519.8824689 -0.349950E-03  0.198E-02    0.01       1.0  T
  23   -519.8823902  0.787450E-04  0.225E-02    0.01       1.0  T
  24   -519.8825395 -0.149315E-03  0.110E-02    0.01       1.0  T
  25   -519.8825679 -0.284619E-04  0.477E-03    0.01       1.2  T
  26   -519.8825721 -0.413041E-05  0.394E-03    0.01       1.4  T
  27   -519.8825733 -0.126886E-05  0.280E-03    0.01       2.0  T
  28   -519.8825733  0.343047E-07  0.214E-03    0.01       2.6  T
  29   -519.8825743 -0.103269E-05  0.122E-03    0.01       4.6  T
  30   -519.8825747 -0.383380E-06  0.564E-04    0.01      10.0  T
  31   -519.8825748 -0.918125E-07  0.265E-04    0.01      21.3  T
     SCC iter.                  ...        0 min,  7.499 sec
     gradient                   ...        0 min,  0.365 sec
 * total energy  :  -513.3870421 Eh     change       -0.2103283E+00 Eh
   gradient norm :     0.2249676 Eh/α   predicted    -0.1986541E+00 (  -5.55%)
   displ. norm   :     0.6165636 α      lambda       -0.1193582E+00
   maximum displ.:     0.1079546 α      in ANC's #181, #542, #232, ...

........................................................................
.............................. CYCLE    4 ..............................
........................................................................

 iter      E             dE          RMSdq      gap      omega  full diag
   1   -519.5236568 -0.519524E+03  0.771E-01    0.05       0.0  T
   2   -515.9852883  0.353837E+01  0.360E+00    0.11       1.0  T
   3   -518.7551569 -0.276987E+01  0.176E+00    0.05       1.0  T
   4   -518.6079281  0.147229E+00  0.260E+00    0.04       1.0  T
   5   -519.3294492 -0.721521E+00  0.111E+00    0.01       1.0  T
   6   -519.2015492  0.127900E+00  0.127E+00    0.03       1.0  T
   7   -519.1818051  0.197441E-01  0.126E+00    0.01       1.0  T
   8   -519.5098886 -0.328084E+00  0.785E-01    0.01       1.0  T
   9   -519.3847495  0.125139E+00  0.971E-01    0.02       1.0  T
  10   -519.5405822 -0.155833E+00  0.767E-01    0.03       1.0  T
  11   -519.4204522  0.120130E+00  0.914E-01    0.01       1.0  T
  12   -519.4588766 -0.384244E-01  0.844E-01    0.05       1.0  T
  13   -519.5401934 -0.813168E-01  0.702E-01    0.01       1.0  T
  14   -519.6709972 -0.130804E+00  0.376E-01    0.00       1.0  T
  15   -519.5981001  0.728971E-01  0.574E-01    0.00       1.0  T
  16   -519.7069533 -0.108853E+00  0.159E-01    0.02       1.0  T
  17   -519.7105109 -0.355762E-02  0.127E-01    0.02       1.0  T
  18   -519.7128083 -0.229747E-02  0.943E-02    0.01       1.0  T
  19   -519.7154695 -0.266113E-02  0.356E-02    0.01       1.0  T
  20   -519.7157408 -0.271319E-03  0.216E-02    0.01       1.0  T
  21   -519.7156620  0.787595E-04  0.264E-02    0.01       1.0  T
  22   -519.7157584 -0.964066E-04  0.202E-02    0.01       1.0  T
  23   -519.7158882 -0.129717E-03  0.701E-03    0.01       1.0  T
  24   -519.7159003 -0.121080E-04  0.387E-03    0.01       1.5  T
  25   -519.7159007 -0.424557E-06  0.342E-03    0.01       1.6  T
  26   -519.7159029 -0.219499E-05  0.215E-03    0.01       2.6  T
  27   -519.7159034 -0.504104E-06  0.180E-03    0.01       3.1  T
  28   -519.7159043 -0.910644E-06  0.758E-04    0.01       7.4  T
  29   -519.7159044 -0.134876E-06  0.457E-04    0.01      12.4  T
     SCC iter.                  ...        0 min,  7.088 sec
     gradient                   ...        0 min,  0.388 sec
 * total energy  :  -513.4730996 Eh     change       -0.8605754E-01 Eh
   gradient norm :     0.0921215 Eh/α   predicted    -0.8236621E-01 (  -4.29%)
   displ. norm   :     0.6287437 α      lambda       -0.4702311E-01
   maximum displ.:     0.1721624 α      in ANC's #2, #181, #75, ...

........................................................................
.............................. CYCLE    5 ..............................
........................................................................

 iter      E             dE          RMSdq      gap      omega  full diag
   1   -519.5738627 -0.519574E+03  0.369E-01    0.01       0.0  T
   2   -518.6183749  0.955488E+00  0.174E+00    0.03       1.0  T
   3   -518.7840895 -0.165715E+00  0.162E+00    0.04       1.0  T
   4   -519.1689514 -0.384862E+00  0.123E+00    0.00       1.0  T
   5   -519.3535086 -0.184557E+00  0.855E-01    0.00       1.0  T
   6   -519.3642785 -0.107699E-01  0.886E-01    0.01       1.0  T
   7   -519.4447373 -0.804589E-01  0.724E-01    0.01       1.0  T
   8   -519.3719334  0.728039E-01  0.849E-01    0.02       1.0  T
   9   -519.2524691  0.119464E+00  0.104E+00    0.03       1.0  T
  10   -519.3695538 -0.117085E+00  0.810E-01    0.03       1.0  T
  11   -519.5247220 -0.155168E+00  0.494E-01    0.01       1.0  T
  12   -519.5558854 -0.311635E-01  0.430E-01    0.00       1.0  T
  13   -519.6118610 -0.559756E-01  0.120E-01    0.01       1.0  T
  14   -519.6111265  0.734512E-03  0.146E-01    0.01       1.0  T
  15   -519.6155958 -0.446930E-02  0.607E-02    0.01       1.0  T
  16   -519.6157579 -0.162066E-03  0.549E-02    0.01       1.0  T
  17   -519.6164827 -0.724781E-03  0.307E-02    0.01       1.0  T
  18   -519.6166965 -0.213844E-03  0.168E-02    0.01       1.0  T
  19   -519.6167506 -0.540920E-04  0.111E-02    0.01       1.0  T
  20   -519.6167731 -0.224589E-04  0.785E-03    0.01       1.0  T
  21   -519.6167900 -0.169764E-04  0.376E-03    0.01       1.5  T
  22   -519.6167881  0.196331E-05  0.437E-03    0.01       1.3  T
  23   -519.6167937 -0.559119E-05  0.178E-03    0.01       3.2  T
  24   -519.6167938 -0.129465E-06  0.172E-03    0.01       3.3  T
  25   -519.6167945 -0.729490E-06  0.832E-04    0.01       6.8  T
  26   -519.6167947 -0.201808E-06  0.324E-04    0.01      17.4  T
     SCC iter.                  ...        0 min,  6.291 sec
     gradient                   ...        0 min,  0.358 sec
 * total energy  :  -513.5072360 Eh     change       -0.3413633E-01 Eh
   gradient norm :     0.0462663 Eh/α   predicted    -0.3280622E-01 (  -3.90%)
   displ. norm   :     0.6003974 α      lambda       -0.1977387E-01
   maximum displ.:     0.1891396 α      in ANC's #2, #77, #75, ...

........................................................................
.............................. CYCLE    6 ..............................
........................................................................

 iter      E             dE          RMSdq      gap      omega  full diag
   1   -519.5563819 -0.519556E+03  0.278E-01    0.01       0.0  T
   2   -518.5466357  0.100975E+01  0.196E+00    0.06       1.0  T
   3   -518.9130215 -0.366386E+00  0.143E+00    0.02       1.0  T
   4   -519.0812494 -0.168228E+00  0.119E+00    0.00       1.0  T
   5   -519.3902885 -0.309039E+00  0.726E-01    0.00       1.0  T
   6   -519.3788781  0.114104E-01  0.765E-01    0.00       1.0  T
   7   -519.3624417  0.164365E-01  0.804E-01    0.00       1.0  T
   8   -519.5417928 -0.179351E+00  0.347E-01    0.00       1.0  T
   9   -519.3925828  0.149210E+00  0.716E-01    0.01       1.0  T
  10   -519.4557530 -0.631701E-01  0.639E-01    0.01       1.0  T
  11   -519.5680700 -0.112317E+00  0.178E-01    0.01       1.0  T
  12   -519.5161917  0.518784E-01  0.419E-01    0.01       1.0  T
  13   -519.5594103 -0.432186E-01  0.236E-01    0.01       1.0  T
  14   -519.5640049 -0.459468E-02  0.206E-01    0.01       1.0  T
  15   -519.5708390 -0.683405E-02  0.153E-01    0.00       1.0  T
  16   -519.5782632 -0.742421E-02  0.664E-02    0.01       1.0  T
  17   -519.5796327 -0.136949E-02  0.159E-02    0.01       1.0  T
  18   -519.5794980  0.134673E-03  0.260E-02    0.01       1.0  T
  19   -519.5796912 -0.193187E-03  0.854E-03    0.01       1.0  T
  20   -519.5797129 -0.217303E-04  0.355E-03    0.01       1.6  T
  21   -519.5797129  0.713004E-07  0.353E-03    0.01       1.6  T
  22   -519.5797113  0.159931E-05  0.434E-03    0.01       1.3  T
  23   -519.5797163 -0.505783E-05  0.174E-03    0.01       3.2  T
  24   -519.5797171 -0.798146E-06  0.986E-04    0.01       5.7  T
  25   -519.5797174 -0.332804E-06  0.271E-04    0.01      20.9  T
     SCC iter.                  ...        0 min,  5.579 sec
     gradient                   ...        0 min,  0.352 sec
 * total energy  :  -513.5216472 Eh     change       -0.1441124E-01 Eh
   gradient norm :     0.0391575 Eh/α   predicted    -0.1345121E-01 (  -6.66%)
   displ. norm   :     0.5444572 α      lambda       -0.9409611E-02
   maximum displ.:     0.1396104 α      in ANC's #9, #6, #4, ...

........................................................................
.............................. CYCLE    7 ..............................
........................................................................

 iter      E             dE          RMSdq      gap      omega  full diag
   1   -519.5590001 -0.519559E+03  0.236E-01    0.01       0.0  T
   2   -518.5879135  0.971087E+00  0.190E+00    0.06       1.0  T
   3   -519.1412777 -0.553364E+00  0.115E+00    0.02       1.0  T
   4   -519.2168812 -0.756036E-01  0.105E+00    0.01       1.0  T
   5   -519.5133767 -0.296496E+00  0.418E-01    0.01       1.0  T
   6   -519.2062393  0.307137E+00  0.104E+00    0.04       1.0  T
   7   -519.5256443 -0.319405E+00  0.388E-01    0.00       1.0  T
   8   -519.3377155  0.187929E+00  0.816E-01    0.01       1.0  T
   9   -519.5157633 -0.178048E+00  0.438E-01    0.00       1.0  T
  10   -519.4760421  0.397212E-01  0.537E-01    0.01       1.0  T
  11   -519.5531628 -0.771207E-01  0.245E-01    0.00       1.0  T
  12   -519.5294100  0.237528E-01  0.365E-01    0.00       1.0  T
  13   -519.5692895 -0.398795E-01  0.129E-01    0.01       1.0  T
  14   -519.5535151  0.157744E-01  0.249E-01    0.00       1.0  T
  15   -519.5731905 -0.196755E-01  0.831E-02    0.01       1.0  T
  16   -519.5735992 -0.408643E-03  0.711E-02    0.01       1.0  T
  17   -519.5745745 -0.975337E-03  0.411E-02    0.01       1.0  T
  18   -519.5750652 -0.490666E-03  0.218E-02    0.01       1.0  T
  19   -519.5751942 -0.129060E-03  0.702E-03    0.01       1.0  T
  20   -519.5752105 -0.162894E-04  0.225E-03    0.01       2.5  T
  21   -519.5752119 -0.138394E-05  0.112E-03    0.01       5.0  T
  22   -519.5752121 -0.166201E-06  0.712E-04    0.01       7.9  T
  23   -519.5752121 -0.562331E-07  0.533E-04    0.01      10.6  T
     SCC iter.                  ...        0 min,  5.405 sec
     gradient                   ...        0 min,  0.365 sec
 * total energy  :  -513.5283495 Eh     change       -0.6702293E-02 Eh
   gradient norm :     0.0315859 Eh/α   predicted    -0.6099476E-02 (  -8.99%)
   displ. norm   :     0.6311215 α      lambda       -0.6825233E-02
   maximum displ.:     0.3751307 α      in ANC's #2, #9, #6, ...

........................................................................
.............................. CYCLE    8 ..............................
........................................................................

 iter      E             dE          RMSdq      gap      omega  full diag
   1   -519.5736679 -0.519574E+03  0.202E-01    0.01       0.0  T
   2   -518.9050306  0.668637E+00  0.146E+00    0.00       1.0  T
   3   -519.0926539 -0.187623E+00  0.120E+00    0.00       1.0  T
   4   -519.2197084 -0.127054E+00  0.101E+00    0.02       1.0  T
   5   -519.5100281 -0.290320E+00  0.448E-01    0.00       1.0  T
   6   -519.1822817  0.327746E+00  0.115E+00    0.00       1.0  T
   7   -519.4529024 -0.270621E+00  0.609E-01    0.00       1.0  T
   8   -519.4730860 -0.201836E-01  0.560E-01    0.01       1.0  T
   9   -519.4391961  0.338900E-01  0.636E-01    0.00       1.0  T
  10   -519.5384071 -0.992110E-01  0.366E-01    0.00       1.0  T
  11   -519.5433172 -0.491010E-02  0.336E-01    0.01       1.0  T
  12   -519.5410115  0.230569E-02  0.345E-01    0.00       1.0  T
  13   -519.5785092 -0.374977E-01  0.113E-01    0.01       1.0  T
  14   -519.5709243  0.758495E-02  0.186E-01    0.01       1.0  T
  15   -519.5820922 -0.111679E-01  0.523E-02    0.01       1.0  T
  16   -519.5823960 -0.303750E-03  0.418E-02    0.01       1.0  T
  17   -519.5830055 -0.609572E-03  0.111E-02    0.01       1.0  T
  18   -519.5829442  0.613544E-04  0.165E-02    0.01       1.0  T
  19   -519.5830469 -0.102757E-03  0.220E-03    0.01       2.6  T
  20   -519.5830484 -0.144917E-05  0.903E-04    0.01       6.2  T
  21   -519.5830482  0.150930E-06  0.106E-03    0.01       5.3  T
  22   -519.5830486 -0.308755E-06  0.527E-04    0.01      10.7  T
  23   -519.5830484  0.123695E-06  0.770E-04    0.01       7.3  T
     SCC iter.                  ...        0 min,  5.363 sec
     gradient                   ...        0 min,  0.390 sec
 * total energy  :  -513.5303135 Eh     change       -0.1964049E-02 Eh
   gradient norm :     0.0550577 Eh/α   predicted    -0.4771913E-02 ( 142.96%)
   displ. norm   :     0.4545417 α      lambda       -0.7711797E-02
   maximum displ.:     0.1993942 α      in ANC's #2, #9, #6, ...

........................................................................
.............................. CYCLE    9 ..............................
........................................................................

 iter      E             dE          RMSdq      gap      omega  full diag
   1   -519.6002415 -0.519600E+03  0.138E-01    0.01       0.0  T
   2   -519.2247957  0.375446E+00  0.106E+00    0.01       1.0  T
   3   -519.2771904 -0.523947E-01  0.966E-01    0.01       1.0  T
   4   -519.5471207 -0.269930E+00  0.429E-01    0.00       1.0  T
   5   -519.5265048  0.206159E-01  0.467E-01    0.00       1.0  T
   6   -519.4699428  0.565620E-01  0.640E-01    0.00       1.0  T
   7   -519.5107129 -0.407701E-01  0.505E-01    0.01       1.0  T
   8   -519.5606232 -0.499103E-01  0.349E-01    0.00       1.0  T
   9   -519.4949515  0.656717E-01  0.568E-01    0.00       1.0  T
  10   -519.5943585 -0.994070E-01  0.172E-01    0.01       1.0  T
  11   -519.5891052  0.525325E-02  0.208E-01    0.00       1.0  T
  12   -519.5943574 -0.525222E-02  0.177E-01    0.01       1.0  T
  13   -519.6002800 -0.592254E-02  0.110E-01    0.01       1.0  T
  14   -519.6036254 -0.334543E-02  0.501E-02    0.01       1.0  T
  15   -519.6038560 -0.230614E-03  0.395E-02    0.01       1.0  T
  16   -519.6044196 -0.563589E-03  0.638E-03    0.01       1.0  T
  17   -519.6043585  0.610840E-04  0.139E-02    0.01       1.0  T
  18   -519.6044188 -0.603013E-04  0.605E-03    0.01       1.0  T
  19   -519.6044108  0.800422E-05  0.755E-03    0.01       1.0  T
  20   -519.6044312 -0.203583E-04  0.206E-03    0.01       2.7  T
  21   -519.6044306  0.576624E-06  0.228E-03    0.01       2.5  T
  22   -519.6044323 -0.172153E-05  0.902E-04    0.01       6.3  T
  23   -519.6044324 -0.106963E-06  0.731E-04    0.01       7.7  T
  24   -519.6044325 -0.583399E-07  0.584E-04    0.01       9.7  T
     SCC iter.                  ...        0 min,  5.407 sec
     gradient                   ...        0 min,  0.360 sec
 * total energy  :  -513.5346684 Eh     change       -0.4354891E-02 Eh
   gradient norm :     0.0255186 Eh/α   predicted    -0.4652572E-02 (   6.84%)
   displ. norm   :     0.3924106 α      lambda       -0.2578842E-02
   maximum displ.:     0.1315249 α      in ANC's #3, #22, #9, ...

........................................................................
.............................. CYCLE   10 ..............................
........................................................................

 iter      E             dE          RMSdq      gap      omega  full diag
   1   -519.6049096 -0.519605E+03  0.113E-01    0.01       0.0  T
   2   -519.0736339  0.531276E+00  0.126E+00    0.00       1.0  T
   3   -519.4173990 -0.343765E+00  0.735E-01    0.01       1.0  T
   4   -519.5369761 -0.119577E+00  0.467E-01    0.00       1.0  T
   5   -519.4958088  0.411673E-01  0.568E-01    0.01       1.0  T
   6   -519.5727643 -0.769555E-01  0.347E-01    0.01       1.0  T
   7   -519.5634215  0.934283E-02  0.360E-01    0.00       1.0  T
   8   -519.5525969  0.108246E-01  0.392E-01    0.00       1.0  T
   9   -519.6050841 -0.524872E-01  0.832E-02    0.01       1.0  T
  10   -519.6026094  0.247477E-02  0.118E-01    0.02       1.0  T
  11   -519.6025043  0.105101E-03  0.123E-01    0.01       1.0  T
  12   -519.6045087 -0.200448E-02  0.945E-02    0.01       1.0  T
  13   -519.6065479 -0.203917E-02  0.544E-02    0.01       1.0  T
  14   -519.6060303  0.517587E-03  0.633E-02    0.01       1.0  T
  15   -519.6073391 -0.130880E-02  0.260E-02    0.01       1.0  T
  16   -519.6075468 -0.207707E-03  0.934E-03    0.01       1.0  T
  17   -519.6075644 -0.175821E-04  0.623E-03    0.01       1.0  T
  18   -519.6075773 -0.128915E-04  0.142E-03    0.01       4.0  T
  19   -519.6075751  0.222549E-05  0.287E-03    0.01       2.0  T
  20   -519.6075775 -0.246273E-05  0.119E-03    0.01       4.7  T
  21   -519.6075778 -0.227651E-06  0.798E-04    0.01       7.1  T
  22   -519.6075779 -0.180957E-06  0.366E-04    0.01      15.4  T
     SCC iter.                  ...        0 min,  4.509 sec
     gradient                   ...        0 min,  0.329 sec
 * total energy  :  -513.5367703 Eh     change       -0.2101862E-02 Eh
   gradient norm :     0.0306150 Eh/α   predicted    -0.1487982E-02 ( -29.21%)
   displ. norm   :     0.6656220 α      lambda       -0.5384352E-02
   maximum displ.:     0.2283812 α      in ANC's #3, #22, #23, ...

........................................................................
.............................. CYCLE   11 ..............................
........................................................................

 iter      E             dE          RMSdq      gap      omega  full diag
   1   -519.6180574 -0.519618E+03  0.169E-01    0.01       0.0  T
   2   -519.0367095  0.581348E+00  0.136E+00    0.00       1.0  T
   3   -519.1855230 -0.148813E+00  0.113E+00    0.05       1.0  T
   4   -519.4118205 -0.226297E+00  0.779E-01    0.00       1.0  T
   5   -519.5817605 -0.169940E+00  0.355E-01    0.01       1.0  T
   6   -519.3526675  0.229093E+00  0.904E-01    0.00       1.0  T
   7   -519.5072482 -0.154581E+00  0.575E-01    0.00       1.0  T
   8   -519.5732261 -0.659779E-01  0.388E-01    0.00       1.0  T
   9   -519.6087966 -0.355704E-01  0.222E-01    0.01       1.0  T
  10   -519.6036379  0.515870E-02  0.241E-01    0.00       1.0  T
  11   -519.6164912 -0.128533E-01  0.149E-01    0.01       1.0  T
  12   -519.5919260  0.245652E-01  0.299E-01    0.00       1.0  T
  13   -519.6226145 -0.306885E-01  0.659E-02    0.01       1.0  T
  14   -519.6214913  0.112323E-02  0.833E-02    0.01       1.0  T
  15   -519.6239449 -0.245359E-02  0.184E-02    0.01       1.0  T
  16   -519.6239172  0.276845E-04  0.203E-02    0.01       1.0  T
  17   -519.6239780 -0.607738E-04  0.153E-02    0.01       1.0  T
  18   -519.6240526 -0.746445E-04  0.419E-03    0.01       1.3  T
  19   -519.6240511  0.153768E-05  0.433E-03    0.01       1.3  T
  20   -519.6240539 -0.281975E-05  0.326E-03    0.01       1.7  T
  21   -519.6240525  0.140855E-05  0.384E-03    0.01       1.5  T
  22   -519.6240558 -0.330391E-05  0.224E-03    0.01       2.5  T
  23   -519.6240571 -0.131464E-05  0.112E-03    0.01       5.1  T
  24   -519.6240575 -0.372502E-06  0.366E-04    0.01      15.4  T
  25   -519.6240575 -0.380488E-07  0.164E-04    0.01      34.3  T
     SCC iter.                  ...        0 min,  5.554 sec
     gradient                   ...        0 min,  0.338 sec
 * total energy  :  -513.5397297 Eh     change       -0.2959449E-02 Eh
   gradient norm :     0.0348776 Eh/α   predicted    -0.3884954E-02 (  31.27%)
   displ. norm   :     0.5397782 α      lambda       -0.3908007E-02
   maximum displ.:     0.2387988 α      in ANC's #9, #23, #3, ...

........................................................................
.............................. CYCLE   12 ..............................
........................................................................

 iter      E             dE          RMSdq      gap      omega  full diag
   1   -519.5969169 -0.519597E+03  0.232E-01    0.01       0.0  T
   2   -519.0667196  0.530197E+00  0.122E+00    0.01       1.0  T
   3   -518.9209880  0.145732E+00  0.140E+00    0.03       1.0  T
   4   -519.2445427 -0.323555E+00  0.106E+00    0.01       1.0  T
   5   -519.5041497 -0.259607E+00  0.559E-01    0.01       1.0  T
   6   -519.5550398 -0.508901E-01  0.405E-01    0.01       1.0  T
   7   -519.4888915  0.661483E-01  0.586E-01    0.02       1.0  T
   8   -519.3893280  0.995635E-01  0.827E-01    0.01       1.0  T
   9   -519.5248829 -0.135555E+00  0.506E-01    0.01       1.0  T
  10   -519.5917356 -0.668527E-01  0.244E-01    0.01       1.0  T
  11   -519.5762933  0.154423E-01  0.352E-01    0.00       1.0  T
  12   -519.5842085 -0.791519E-02  0.282E-01    0.02       1.0  T
  13   -519.5973173 -0.131089E-01  0.197E-01    0.00       1.0  T
  14   -519.6025697 -0.525231E-02  0.164E-01    0.01       1.0  T
  15   -519.6064426 -0.387298E-02  0.125E-01    0.01       1.0  T
  16   -519.6090911 -0.264846E-02  0.900E-02    0.01       1.0  T
  17   -519.6119896 -0.289851E-02  0.809E-03    0.01       1.0  T
  18   -519.6119968 -0.719126E-05  0.587E-03    0.01       1.0  T
  19   -519.6119987 -0.189819E-05  0.530E-03    0.01       1.1  T
  20   -519.6119955  0.321415E-05  0.596E-03    0.01       1.0  T
  21   -519.6120076 -0.121033E-04  0.144E-03    0.01       3.9  T
  22   -519.6120043  0.324152E-05  0.335E-03    0.01       1.7  T
  23   -519.6120081 -0.375797E-05  0.716E-04    0.01       7.9  T
  24   -519.6120080  0.811353E-07  0.847E-04    0.01       6.7  T
  25   -519.6120081 -0.573500E-07  0.764E-04    0.01       7.4  T
     SCC iter.                  ...        0 min,  5.490 sec
     gradient                   ...        0 min,  0.391 sec
 * total energy  :  -513.5418827 Eh     change       -0.2152983E-02 Eh
   gradient norm :     0.0332187 Eh/α   predicted    -0.2523344E-02 (  17.20%)
   displ. norm   :     0.4243494 α      lambda       -0.2787603E-02
   maximum displ.:     0.1913120 α      in ANC's #23, #21, #3, ...

........................................................................
.............................. CYCLE   13 ..............................
........................................................................

 iter      E             dE          RMSdq      gap      omega  full diag
   1   -519.5888352 -0.519589E+03  0.236E-01    0.01       0.0  T
   2   -518.9681477  0.620687E+00  0.136E+00    0.01       1.0  T
   3   -518.8575883  0.110559E+00  0.145E+00    0.07       1.0  T
   4   -519.2289999 -0.371412E+00  0.113E+00    0.03       1.0  T
   5   -519.4736350 -0.244635E+00  0.610E-01    0.01       1.0  T
   6   -519.5407880 -0.671531E-01  0.439E-01    0.01       1.0  T
   7   -519.4641057  0.766824E-01  0.658E-01    0.00       1.0  T
   8   -519.3660911  0.980146E-01  0.886E-01    0.01       1.0  T
   9   -519.5061320 -0.140041E+00  0.574E-01    0.00       1.0  T
  10   -519.5834749 -0.773429E-01  0.252E-01    0.01       1.0  T
  11   -519.5599867  0.234882E-01  0.350E-01    0.01       1.0  T
  12   -519.5588682  0.111852E-02  0.373E-01    0.01       1.0  T
  13   -519.5461573  0.127109E-01  0.404E-01    0.01       1.0  T
  14   -519.5895446 -0.433873E-01  0.207E-01    0.01       1.0  T
  15   -519.6030864 -0.135418E-01  0.297E-02    0.01       1.0  T
  16   -519.6018645  0.122190E-02  0.678E-02    0.01       1.0  T
  17   -519.6031504 -0.128590E-02  0.246E-02    0.01       1.0  T
  18   -519.6032729 -0.122539E-03  0.158E-02    0.01       1.0  T
  19   -519.6033185 -0.455839E-04  0.100E-02    0.01       1.0  T
  20   -519.6033386 -0.200386E-04  0.612E-03    0.01       1.0  T
  21   -519.6033460 -0.745729E-05  0.374E-03    0.01       1.5  T
  22   -519.6033502 -0.417867E-05  0.982E-04    0.01       5.7  T
  23   -519.6033504 -0.188354E-06  0.601E-04    0.01       9.4  T
  24   -519.6033504  0.558884E-09  0.568E-04    0.01       9.9  T
     SCC iter.                  ...        0 min,  6.255 sec
     gradient                   ...        0 min,  0.384 sec
 * total energy  :  -513.5430874 Eh     change       -0.1204724E-02 Eh
   gradient norm :     0.0400767 Eh/α   predicted    -0.1644789E-02 (  36.53%)
   displ. norm   :     0.3784383 α      lambda       -0.3924848E-02
   maximum displ.:     0.1948942 α      in ANC's #23, #3, #9, ...

........................................................................
.............................. CYCLE   14 ..............................
........................................................................

 iter      E             dE          RMSdq      gap      omega  full diag
   1   -519.6078410 -0.519608E+03  0.158E-01    0.01       0.0  T
   2   -518.9641265  0.643715E+00  0.141E+00    0.03       1.0  T
   3   -519.0698416 -0.105715E+00  0.128E+00    0.02       1.0  T
   4   -519.5825539 -0.512712E+00  0.307E-01    0.00       1.0  T
   5   -519.6015942 -0.190403E-01  0.191E-01    0.00       1.0  T
   6   -519.5127741  0.888201E-01  0.613E-01    0.01       1.0  T
   7   -519.6031370 -0.903629E-01  0.188E-01    0.01       1.0  T
   8   -519.5910345  0.121025E-01  0.261E-01    0.00       1.0  T
   9   -519.5983547 -0.732015E-02  0.218E-01    0.01       1.0  T
  10   -519.6068483 -0.849361E-02  0.157E-01    0.01       1.0  T
  11   -519.6105173 -0.366900E-02  0.112E-01    0.00       1.0  T
  12   -519.6093874  0.112987E-02  0.121E-01    0.01       1.0  T
  13   -519.6095050 -0.117586E-03  0.126E-01    0.01       1.0  T
  14   -519.6133398 -0.383481E-02  0.652E-02    0.01       1.0  T
  15   -519.6133603 -0.204533E-04  0.625E-02    0.01       1.0  T
  16   -519.6146577 -0.129747E-02  0.123E-02    0.01       1.0  T
  17   -519.6146865 -0.287633E-04  0.805E-03    0.01       1.0  T
  18   -519.6147067 -0.201613E-04  0.921E-04    0.01       6.1  T
  19   -519.6147059  0.793572E-06  0.179E-03    0.01       3.2  T
  20   -519.6147065 -0.666970E-06  0.104E-03    0.01       5.4  T
  21   -519.6147066 -0.299101E-07  0.999E-04    0.01       5.6  T
  22   -519.6147069 -0.285025E-06  0.352E-04    0.01      16.0  T
     SCC iter.                  ...        0 min,  6.756 sec
     gradient                   ...        0 min,  0.384 sec
 * total energy  :  -513.5452438 Eh     change       -0.2156391E-02 Eh
   gradient norm :     0.0300139 Eh/α   predicted    -0.2243475E-02 (   4.04%)
   displ. norm   :     0.5844802 α      lambda       -0.4233792E-02
   maximum displ.:     0.2689649 α      in ANC's #9, #23, #3, ...

........................................................................
.............................. CYCLE   15 ..............................
........................................................................

 iter      E             dE          RMSdq      gap      omega  full diag
   1   -519.5877280 -0.519588E+03  0.224E-01    0.00       0.0  T
   2   -518.8828523  0.704876E+00  0.150E+00    0.03       1.0  T
   3   -519.0155853 -0.132733E+00  0.148E+00    0.01       1.0  T
   4   -519.3359216 -0.320336E+00  0.859E-01    0.02       1.0  T
   5   -519.5474422 -0.211521E+00  0.420E-01    0.00       1.0  T
   6   -519.5110722  0.363700E-01  0.502E-01    0.00       1.0  T
   7   -519.5144404 -0.336829E-02  0.521E-01    0.01       1.0  T
   8   -519.3485861  0.165854E+00  0.876E-01    0.02       1.0  T
   9   -519.5297754 -0.181189E+00  0.484E-01    0.01       1.0  T
  10   -519.4908728  0.389026E-01  0.546E-01    0.03       1.0  T
  11   -519.5751482 -0.842753E-01  0.274E-01    0.02       1.0  T
  12   -519.5537636  0.213846E-01  0.361E-01    0.01       1.0  T
  13   -519.5979371 -0.441735E-01  0.949E-02    0.01       1.0  T
  14   -519.5797488  0.181883E-01  0.242E-01    0.00       1.0  T
  15   -519.5996462 -0.198974E-01  0.631E-02    0.01       1.0  T
  16   -519.6008598 -0.121366E-02  0.132E-02    0.01       1.0  T
  17   -519.6008451  0.146856E-04  0.159E-02    0.01       1.0  T
  18   -519.6008545 -0.940851E-05  0.135E-02    0.01       1.0  T
  19   -519.6008829 -0.284158E-04  0.101E-02    0.01       1.0  T
  20   -519.6009108 -0.278487E-04  0.424E-03    0.01       1.3  T
  21   -519.6009145 -0.371134E-05  0.299E-03    0.01       1.9  T
  22   -519.6009153 -0.765012E-06  0.285E-03    0.01       2.0  T
  23   -519.6009165 -0.123096E-05  0.184E-03    0.01       3.1  T
  24   -519.6009174 -0.888840E-06  0.896E-04    0.01       6.3  T
  25   -519.6009175 -0.752967E-07  0.774E-04    0.01       7.3  T
     SCC iter.                  ...        0 min,  6.437 sec
     gradient                   ...        0 min,  0.338 sec
 * total energy  :  -513.5453284 Eh     change       -0.8458553E-04 Eh
   gradient norm :     0.0625832 Eh/α   predicted    -0.2840068E-02 (3257.63%)
   displ. norm   :     0.3087938 α      lambda       -0.5608797E-02
   maximum displ.:     0.1478269 α      in ANC's #20, #8, #23, ...

........................................................................
.............................. CYCLE   16 ..............................
........................................................................

 iter      E             dE          RMSdq      gap      omega  full diag
   1   -519.6110194 -0.519611E+03  0.119E-01    0.01       0.0  T
   2   -518.8797116  0.731308E+00  0.147E+00    0.08       1.0  T
   3   -519.2632620 -0.383550E+00  0.102E+00    0.02       1.0  T
   4   -519.5825308 -0.319269E+00  0.307E-01    0.02       1.0  T
   5   -519.5621719  0.203589E-01  0.391E-01    0.01       1.0  T
   6   -519.4912576  0.709143E-01  0.596E-01    0.00       1.0  T
   7   -519.6013004 -0.110043E+00  0.203E-01    0.01       1.0  T
   8   -519.5971214  0.417901E-02  0.243E-01    0.00       1.0  T
   9   -519.5774844  0.196370E-01  0.347E-01    0.00       1.0  T
  10   -519.6123060 -0.348216E-01  0.819E-02    0.02       1.0  T
  11   -519.5993160  0.129900E-01  0.205E-01    0.01       1.0  T
  12   -519.6139413 -0.146253E-01  0.538E-02    0.02       1.0  T
  13   -519.6038937  0.100476E-01  0.164E-01    0.01       1.0  T
  14   -519.6143046 -0.104109E-01  0.263E-02    0.01       1.0  T
  15   -519.6144484 -0.143817E-03  0.155E-02    0.01       1.0  T
  16   -519.6145220 -0.736157E-04  0.373E-03    0.01       1.5  T
  17   -519.6145222 -0.201153E-06  0.350E-03    0.01       1.6  T
  18   -519.6145150  0.725722E-05  0.594E-03    0.01       1.0  T
  19   -519.6145244 -0.939517E-05  0.209E-03    0.01       2.7  T
  20   -519.6145255 -0.108572E-05  0.119E-03    0.01       4.7  T
  21   -519.6145258 -0.305123E-06  0.771E-04    0.01       7.3  T
  22   -519.6145259 -0.154081E-06  0.377E-04    0.01      15.0  T
     SCC iter.                  ...        0 min,  5.065 sec
     gradient                   ...        0 min,  0.376 sec
 * total energy  :  -513.5479813 Eh     change       -0.2652917E-02 Eh
   gradient norm :     0.0356696 Eh/α   predicted    -0.3071812E-02 (  15.79%)
   displ. norm   :     0.4316893 α      lambda       -0.4352292E-02
   maximum displ.:     0.1824449 α      in ANC's #23, #5, #13, ...

........................................................................
.............................. CYCLE   17 ..............................
........................................................................

 iter      E             dE          RMSdq      gap      omega  full diag
   1   -519.5996966 -0.519600E+03  0.231E-01    0.01       0.0  T
   2   -519.0437354  0.555961E+00  0.132E+00    0.01       1.0  T
   3   -518.8432309  0.200505E+00  0.151E+00    0.02       1.0  T
   4   -519.4390505 -0.595820E+00  0.722E-01    0.01       1.0  T
   5   -519.5634237 -0.124373E+00  0.382E-01    0.00       1.0  T
   6   -519.5447704  0.186533E-01  0.434E-01    0.01       1.0  T
   7   -519.2887867  0.255984E+00  0.949E-01    0.01       1.0  T
   8   -519.3851251 -0.963384E-01  0.818E-01    0.00       1.0  T
   9   -519.4881929 -0.103068E+00  0.602E-01    0.00       1.0  T
  10   -519.5944855 -0.106293E+00  0.242E-01    0.02       1.0  T
  11   -519.5758835  0.186020E-01  0.369E-01    0.01       1.0  T
  12   -519.5701562  0.572728E-02  0.357E-01    0.00       1.0  T
  13   -519.5769507 -0.679450E-02  0.319E-01    0.00       1.0  T
  14   -519.6054576 -0.285068E-01  0.160E-01    0.02       1.0  T
  15   -519.6126954 -0.723783E-02  0.734E-02    0.01       1.0  T
  16   -519.6110482  0.164721E-02  0.973E-02    0.01       1.0  T
  17   -519.6135544 -0.250618E-02  0.502E-02    0.01       1.0  T
  18   -519.6137604 -0.206056E-03  0.435E-02    0.01       1.0  T
  19   -519.6144121 -0.651662E-03  0.691E-03    0.01       1.0  T
  20   -519.6144146 -0.246942E-05  0.607E-03    0.01       1.0  T
  21   -519.6144242 -0.961814E-05  0.310E-03    0.01       1.8  T
  22   -519.6144245 -0.285535E-06  0.298E-03    0.01       1.9  T
  23   -519.6144272 -0.271574E-05  0.108E-03    0.01       5.2  T
  24   -519.6144275 -0.357429E-06  0.410E-04    0.01      13.8  T
  25   -519.6144273  0.191753E-06  0.828E-04    0.01       6.8  T
     SCC iter.                  ...        0 min,  5.945 sec
     gradient                   ...        0 min,  0.368 sec
 * total energy  :  -513.5481116 Eh     change       -0.1302723E-03 Eh
   gradient norm :     0.0528517 Eh/α   predicted    -0.2581688E-02 (1881.76%)
   displ. norm   :     0.2766271 α      lambda       -0.4195518E-02
   maximum displ.:     0.0994012 α      in ANC's #4, #3, #23, ...

........................................................................
.............................. CYCLE   18 ..............................
........................................................................

 iter      E             dE          RMSdq      gap      omega  full diag
   1   -519.6159229 -0.519616E+03  0.128E-01    0.01       0.0  T
   2   -518.9326482  0.683275E+00  0.143E+00    0.07       1.0  T
   3   -519.2549075 -0.322259E+00  0.102E+00    0.02       1.0  T
   4   -519.4420957 -0.187188E+00  0.735E-01    0.01       1.0  T
   5   -519.6126379 -0.170542E+00  0.155E-01    0.01       1.0  T
   6   -519.5153148  0.973231E-01  0.548E-01    0.00       1.0  T
   7   -519.5046459  0.106689E-01  0.600E-01    0.00       1.0  T
   8   -519.5290616 -0.244158E-01  0.519E-01    0.00       1.0  T
   9   -519.5957248 -0.666632E-01  0.266E-01    0.01       1.0  T
  10   -519.6151470 -0.194222E-01  0.126E-01    0.02       1.0  T
  11   -519.5766890  0.384579E-01  0.349E-01    0.01       1.0  T
  12   -519.5914473 -0.147583E-01  0.288E-01    0.02       1.0  T
  13   -519.6139155 -0.224681E-01  0.137E-01    0.01       1.0  T
  14   -519.6201630 -0.624755E-02  0.390E-02    0.02       1.0  T
  15   -519.6204816 -0.318554E-03  0.221E-02    0.01       1.0  T
  16   -519.6201725  0.309076E-03  0.363E-02    0.01       1.0  T
  17   -519.6205584 -0.385955E-03  0.151E-02    0.01       1.0  T
  18   -519.6206336 -0.751241E-04  0.398E-03    0.01       1.4  T
  19   -519.6206198  0.137972E-04  0.740E-03    0.01       1.0  T
  20   -519.6206380 -0.182654E-04  0.170E-03    0.01       3.3  T
  21   -519.6206385 -0.495784E-06  0.112E-03    0.01       5.0  T
  22   -519.6206386 -0.681396E-07  0.104E-03    0.01       5.4  T
  23   -519.6206388 -0.184128E-06  0.761E-04    0.01       7.4  T
  24   -519.6206390 -0.175505E-06  0.265E-04    0.01      21.3  T
     SCC iter.                  ...        0 min,  5.481 sec
     gradient                   ...        0 min,  0.390 sec
 * total energy  :  -513.5506526 Eh     change       -0.2541026E-02 Eh
   gradient norm :     0.0238188 Eh/α   predicted    -0.2258288E-02 ( -11.13%)
   displ. norm   :     0.5693143 α      lambda       -0.3974688E-02
   maximum displ.:     0.2675833 α      in ANC's #23, #6, #29, ...

........................................................................
.............................. CYCLE   19 ..............................
........................................................................

 iter      E             dE          RMSdq      gap      omega  full diag
   1   -519.5699757 -0.519570E+03  0.324E-01    0.01       0.0  T
   2   -518.7474225  0.822553E+00  0.168E+00    0.03       1.0  T
   3   -519.0839730 -0.336550E+00  0.123E+00    0.02       1.0  T
   4   -518.8623652  0.221608E+00  0.189E+00    0.01       1.0  T
   5   -519.4356141 -0.573249E+00  0.701E-01    0.00       1.0  T
   6   -519.4743794 -0.387653E-01  0.634E-01    0.00       1.0  T
   7   -519.5083769 -0.339975E-01  0.514E-01    0.01       1.0  T
   8   -519.4798510  0.285259E-01  0.581E-01    0.01       1.0  T
   9   -519.4180136  0.618373E-01  0.756E-01    0.00       1.0  T
  10   -519.2136161  0.204398E+00  0.109E+00    0.02       1.0  T
  11   -519.5609533 -0.347337E+00  0.331E-01    0.01       1.0  T
  12   -519.5814022 -0.204489E-01  0.242E-01    0.02       1.0  T
  13   -519.5309377  0.504645E-01  0.452E-01    0.00       1.0  T
  14   -519.5406897 -0.975198E-02  0.409E-01    0.02       1.0  T
  15   -519.5844563 -0.437666E-01  0.221E-01    0.01       1.0  T
  16   -519.5791316  0.532466E-02  0.249E-01    0.01       1.0  T
  17   -519.5969854 -0.178537E-01  0.111E-01    0.02       1.0  T
  18   -519.6009722 -0.398688E-02  0.215E-02    0.01       1.0  T
  19   -519.6006987  0.273567E-03  0.351E-02    0.01       1.0  T
  20   -519.6011041 -0.405428E-03  0.963E-03    0.02       1.0  T
  21   -519.6011325 -0.283478E-04  0.244E-03    0.01       2.3  T
  22   -519.6011334 -0.898342E-06  0.189E-03    0.01       3.0  T
  23   -519.6011309  0.247596E-05  0.330E-03    0.01       1.7  T
  24   -519.6011344 -0.354345E-05  0.743E-04    0.01       7.6  T
  25   -519.6011346 -0.159056E-06  0.320E-04    0.01      17.7  T
  26   -519.6011345  0.123672E-06  0.670E-04    0.01       8.4  T
     SCC iter.                  ...        0 min,  6.169 sec
     gradient                   ...        0 min,  0.350 sec
 * total energy  :  -513.5497400 Eh     change        0.9126805E-03 Eh
   gradient norm :     0.0572674 Eh/α   predicted    -0.2631488E-02 (-388.33%)
   displ. norm   :     0.2589783 α      lambda       -0.6003045E-02
   maximum displ.:     0.1519216 α      in ANC's #6, #5, #9, ...

........................................................................
.............................. CYCLE   20 ..............................
........................................................................

 iter      E             dE          RMSdq      gap      omega  full diag
   1   -519.6251375 -0.519625E+03  0.127E-01    0.01       0.0  T
   2   -519.0790409  0.546097E+00  0.127E+00    0.02       1.0  T
   3   -519.2570538 -0.178013E+00  0.101E+00    0.02       1.0  T
   4   -519.6261534 -0.369100E+00  0.980E-02    0.01       1.0  T
   5   -519.4873104  0.138843E+00  0.604E-01    0.01       1.0  T
   6   -519.6099425 -0.122632E+00  0.246E-01    0.00       1.0  T
   7   -519.6223176 -0.123751E-01  0.142E-01    0.02       1.0  T
   8   -519.6130843  0.923327E-02  0.251E-01    0.00       1.0  T
   9   -519.6199436 -0.685925E-02  0.169E-01    0.00       1.0  T
  10   -519.6280204 -0.807684E-02  0.696E-02    0.01       1.0  T
  11   -519.6281732 -0.152791E-03  0.647E-02    0.01       1.0  T
  12   -519.6221875  0.598568E-02  0.140E-01    0.01       1.0  T
  13   -519.6290739 -0.688639E-02  0.311E-02    0.01       1.0  T
  14   -519.6268790  0.219496E-02  0.852E-02    0.01       1.0  T
  15   -519.6289543 -0.207538E-02  0.361E-02    0.01       1.0  T
  16   -519.6293047 -0.350383E-03  0.171E-02    0.01       1.0  T
  17   -519.6292668  0.379747E-04  0.200E-02    0.01       1.0  T
  18   -519.6293945 -0.127758E-03  0.577E-03    0.01       1.0  T
  19   -519.6293960 -0.147741E-05  0.541E-03    0.01       1.0  T
  20   -519.6294056 -0.963001E-05  0.129E-03    0.01       4.4  T
  21   -519.6294061 -0.483094E-06  0.568E-04    0.01       9.9  T
  22   -519.6294062 -0.614411E-07  0.349E-04    0.01      16.2  T
     SCC iter.                  ...        0 min,  4.973 sec
     gradient                   ...        0 min,  0.340 sec
 * total energy  :  -513.5528756 Eh     change       -0.3135683E-02 Eh
   gradient norm :     0.0286130 Eh/α   predicted    -0.3202836E-02 (   2.14%)
   displ. norm   :     0.5709407 α      lambda       -0.5160917E-02
   maximum displ.:     0.2903813 α      in ANC's #3, #4, #15, ...
 * RMSD in coord.:     0.3537773 α      energy gain  -0.8611461E+00 Eh

generating ANC from model Hessian ...
Using Lindh-Hessian (1995)
 Shifting diagonal of input Hessian by    2.5827482084119883E-003
 Lowest  eigenvalues of input Hessian
    0.000000    0.000000    0.000000    0.000000    0.000000    0.000000
    0.010000    0.010120    0.010551    0.010778    0.011095    0.011549
    0.011597    0.011668    0.011679    0.012072    0.012120    0.012198
 Highest eigenvalues
    2.822150    2.823785    2.834281    2.853433    2.869517    3.032876


........................................................................
.............................. CYCLE   21 ..............................
........................................................................

 iter      E             dE          RMSdq      gap      omega  full diag
   1   -519.5793373 -0.519579E+03  0.235E-01    0.01       0.0  T
   2   -518.8153042  0.764033E+00  0.162E+00    0.01       1.0  T
   3   -519.0321240 -0.216820E+00  0.132E+00    0.08       1.0  T
   4   -519.2611997 -0.229076E+00  0.997E-01    0.02       1.0  T
   5   -519.5201256 -0.258926E+00  0.456E-01    0.02       1.0  T
   6   -519.5355106 -0.153850E-01  0.400E-01    0.00       1.0  T
   7   -519.3755715  0.159939E+00  0.809E-01    0.01       1.0  T
   8   -519.4451396 -0.695681E-01  0.781E-01    0.01       1.0  T
   9   -519.4841430 -0.390034E-01  0.578E-01    0.01       1.0  T
  10   -519.5081476 -0.240046E-01  0.489E-01    0.02       1.0  T
  11   -519.5553329 -0.471853E-01  0.337E-01    0.00       1.0  T
  12   -519.5273690  0.279639E-01  0.433E-01    0.02       1.0  T
  13   -519.5842454 -0.568764E-01  0.168E-01    0.02       1.0  T
  14   -519.5815312  0.271417E-02  0.186E-01    0.01       1.0  T
  15   -519.5889303 -0.739905E-02  0.116E-01    0.01       1.0  T
  16   -519.5931786 -0.424832E-02  0.332E-02    0.01       1.0  T
  17   -519.5924685  0.710050E-03  0.564E-02    0.01       1.0  T
  18   -519.5935309 -0.106239E-02  0.954E-03    0.02       1.0  T
  19   -519.5933916  0.139362E-03  0.218E-02    0.01       1.0  T
  20   -519.5935546 -0.163063E-03  0.294E-03    0.01       1.9  T
  21   -519.5935459  0.873206E-05  0.579E-03    0.02       1.0  T
  22   -519.5935545 -0.856636E-05  0.297E-03    0.01       1.9  T
  23   -519.5935566 -0.211527E-05  0.164E-03    0.01       3.4  T
  24   -519.5935575 -0.907447E-06  0.341E-04    0.01      16.6  T
  25   -519.5935575  0.876707E-08  0.369E-04    0.01      15.3  T
     SCC iter.                  ...        0 min,  5.762 sec
     gradient                   ...        0 min,  0.371 sec
 * total energy  :  -513.5482551 Eh     change        0.4620493E-02 Eh
   gradient norm :     0.0778299 Eh/α   predicted     0.0000000E+00 (-100.00%)
   displ. norm   :     0.2919368 α      lambda       -0.1147062E-01
   maximum displ.:     0.1320948 α      in ANC's #6, #11, #3, ...

........................................................................
.............................. CYCLE   22 ..............................
........................................................................

 iter      E             dE          RMSdq      gap      omega  full diag
   1   -519.6135652 -0.519614E+03  0.162E-01    0.01       0.0  T
   2   -519.0207169  0.592848E+00  0.134E+00    0.00       1.0  T
   3   -519.2827447 -0.262028E+00  0.106E+00    0.02       1.0  T
   4   -519.3313176 -0.485728E-01  0.943E-01    0.01       1.0  T
   5   -519.5706222 -0.239305E+00  0.377E-01    0.02       1.0  T
   6   -519.5847579 -0.141357E-01  0.338E-01    0.00       1.0  T
   7   -519.5528769  0.318810E-01  0.455E-01    0.01       1.0  T
   8   -519.4631334  0.897434E-01  0.693E-01    0.01       1.0  T
   9   -519.5028345 -0.397010E-01  0.597E-01    0.01       1.0  T
  10   -519.5508634 -0.480290E-01  0.458E-01    0.01       1.0  T
  11   -519.5671035 -0.162400E-01  0.387E-01    0.01       1.0  T
  12   -519.5711834 -0.407989E-02  0.373E-01    0.01       1.0  T
  13   -519.5777266 -0.654326E-02  0.345E-01    0.00       1.0  T
  14   -519.6050467 -0.273201E-01  0.216E-01    0.01       1.0  T
  15   -519.6202215 -0.151747E-01  0.474E-02    0.01       1.0  T
  16   -519.6181805  0.204093E-02  0.895E-02    0.01       1.0  T
  17   -519.6208140 -0.263346E-02  0.205E-02    0.01       1.0  T
  18   -519.6209187 -0.104687E-03  0.107E-02    0.01       1.0  T
  19   -519.6208372  0.814844E-04  0.186E-02    0.01       1.0  T
  20   -519.6209564 -0.119241E-03  0.234E-03    0.01       2.4  T
  21   -519.6209569 -0.448391E-06  0.206E-03    0.01       2.7  T
  22   -519.6209583 -0.141724E-05  0.447E-04    0.01      12.6  T
  23   -519.6209581  0.174967E-06  0.818E-04    0.01       6.9  T
  24   -519.6209584 -0.216948E-06  0.144E-04    0.01      39.2  T
     SCC iter.                  ...        0 min,  6.476 sec
     gradient                   ...        0 min,  0.409 sec
 * total energy  :  -513.5554624 Eh     change       -0.7207205E-02 Eh
   gradient norm :     0.0200426 Eh/α   predicted    -0.6225346E-02 ( -13.62%)
   displ. norm   :     0.3965500 α      lambda       -0.2790671E-02
   maximum displ.:     0.2319237 α      in ANC's #6, #11, #3, ...

........................................................................
.............................. CYCLE   23 ..............................
........................................................................

 iter      E             dE          RMSdq      gap      omega  full diag
   1   -519.6251748 -0.519625E+03  0.746E-02    0.01       0.0  T
   2   -519.2233490  0.401826E+00  0.106E+00    0.01       1.0  T
   3   -519.4654585 -0.242109E+00  0.700E-01    0.01       1.0  T
   4   -519.6116879 -0.146229E+00  0.218E-01    0.02       1.0  T
   5   -519.6157159 -0.402795E-02  0.181E-01    0.00       1.0  T
   6   -519.5786576  0.370583E-01  0.398E-01    0.02       1.0  T
   7   -519.6145804 -0.359227E-01  0.185E-01    0.01       1.0  T
   8   -519.6255206 -0.109402E-01  0.584E-02    0.02       1.0  T
   9   -519.6180357  0.748493E-02  0.160E-01    0.01       1.0  T
  10   -519.6242211 -0.618547E-02  0.882E-02    0.01       1.0  T
  11   -519.6263783 -0.215715E-02  0.274E-02    0.01       1.0  T
  12   -519.6163516  0.100266E-01  0.164E-01    0.01       1.0  T
  13   -519.6265131 -0.101614E-01  0.176E-02    0.01       1.0  T
  14   -519.6253163  0.119673E-02  0.581E-02    0.01       1.0  T
  15   -519.6265441 -0.122774E-02  0.156E-02    0.01       1.0  T
  16   -519.6265905 -0.464481E-04  0.864E-03    0.01       1.0  T
  17   -519.6266104 -0.198784E-04  0.423E-03    0.01       1.3  T
  18   -519.6266161 -0.574251E-05  0.107E-03    0.01       5.3  T
  19   -519.6266160  0.115858E-06  0.118E-03    0.01       4.8  T
  20   -519.6266164 -0.422846E-06  0.473E-04    0.01      11.9  T
  21   -519.6266165 -0.512296E-07  0.217E-04    0.01      26.0  T
     SCC iter.                  ...        0 min,  4.949 sec
     gradient                   ...        0 min,  0.362 sec
 * total energy  :  -513.5575805 Eh     change       -0.2118176E-02 Eh
   gradient norm :     0.0118609 Eh/α   predicted    -0.1614755E-02 ( -23.77%)
   displ. norm   :     0.5685767 α      lambda       -0.2517378E-02
   maximum displ.:     0.3038594 α      in ANC's #6, #11, #3, ...

........................................................................
.............................. CYCLE   24 ..............................
........................................................................

 iter      E             dE          RMSdq      gap      omega  full diag
   1   -519.6195988 -0.519620E+03  0.761E-02    0.02       0.0  T
   2   -519.2629173  0.356682E+00  0.100E+00    0.01       1.0  T
   3   -519.5183026 -0.255385E+00  0.534E-01    0.02       1.0  T
   4   -519.6124135 -0.941109E-01  0.162E-01    0.02       1.0  T
   5   -519.5810287  0.313848E-01  0.352E-01    0.00       1.0  T
   6   -519.5643277  0.167009E-01  0.439E-01    0.01       1.0  T
   7   -519.6063413 -0.420135E-01  0.210E-01    0.01       1.0  T
   8   -519.6170666 -0.107253E-01  0.109E-01    0.01       1.0  T
   9   -519.6001690  0.168976E-01  0.242E-01    0.02       1.0  T
  10   -519.6189327 -0.187637E-01  0.819E-02    0.01       1.0  T
  11   -519.6206541 -0.172140E-02  0.326E-02    0.01       1.0  T
  12   -519.6093881  0.112660E-01  0.175E-01    0.01       1.0  T
  13   -519.6208936 -0.115055E-01  0.141E-02    0.01       1.0  T
  14   -519.6188286  0.206491E-02  0.739E-02    0.01       1.0  T
  15   -519.6209482 -0.211955E-02  0.618E-03    0.01       1.0  T
  16   -519.6209557 -0.753576E-05  0.239E-03    0.01       2.4  T
  17   -519.6209572 -0.143070E-05  0.133E-03    0.01       4.2  T
  18   -519.6209575 -0.348261E-06  0.981E-04    0.01       5.8  T
  19   -519.6209577 -0.210995E-06  0.424E-04    0.01      13.3  T
     SCC iter.                  ...        0 min,  4.758 sec
     gradient                   ...        0 min,  0.357 sec
 * total energy  :  -513.5593270 Eh     change       -0.1746437E-02 Eh
   gradient norm :     0.0266791 Eh/α   predicted    -0.1665606E-02 (  -4.63%)
   displ. norm   :     0.4291382 α      lambda       -0.2101773E-02
   maximum displ.:     0.1937815 α      in ANC's #9, #3, #4, ...

........................................................................
.............................. CYCLE   25 ..............................
........................................................................

 iter      E             dE          RMSdq      gap      omega  full diag
   1   -519.6184021 -0.519618E+03  0.703E-02    0.02       0.0  T
   2   -519.3237972  0.294605E+00  0.915E-01    0.00       1.0  T
   3   -519.4076509 -0.838537E-01  0.759E-01    0.02       1.0  T
   4   -519.6163877 -0.208737E+00  0.111E-01    0.02       1.0  T
   5   -519.5947770  0.216107E-01  0.278E-01    0.00       1.0  T
   6   -519.5704638  0.243133E-01  0.407E-01    0.00       1.0  T
   7   -519.6115797 -0.411160E-01  0.156E-01    0.01       1.0  T
   8   -519.6169004 -0.532063E-02  0.894E-02    0.01       1.0  T
   9   -519.6099781  0.692225E-02  0.164E-01    0.00       1.0  T
  10   -519.6192263 -0.924821E-02  0.404E-02    0.01       1.0  T
  11   -519.6180629  0.116342E-02  0.697E-02    0.01       1.0  T
  12   -519.6169921  0.107083E-02  0.897E-02    0.01       1.0  T
  13   -519.6196502 -0.265815E-02  0.169E-02    0.01       1.0  T
  14   -519.6194273  0.222929E-03  0.299E-02    0.02       1.0  T
  15   -519.6197280 -0.300730E-03  0.798E-03    0.01       1.0  T
  16   -519.6197445 -0.164805E-04  0.437E-03    0.01       1.3  T
  17   -519.6197486 -0.406488E-05  0.275E-03    0.02       2.0  T
  18   -519.6197512 -0.258779E-05  0.900E-04    0.01       6.3  T
  19   -519.6197512 -0.983403E-08  0.855E-04    0.01       6.6  T
  20   -519.6197514 -0.251759E-06  0.291E-04    0.01      19.4  T
     SCC iter.                  ...        0 min,  4.407 sec
     gradient                   ...        0 min,  0.396 sec
 * total energy  :  -513.5608444 Eh     change       -0.1517438E-02 Eh
   gradient norm :     0.0225037 Eh/α   predicted    -0.1244418E-02 ( -17.99%)
   displ. norm   :     0.4067752 α      lambda       -0.1961629E-02
   maximum displ.:     0.1928015 α      in ANC's #9, #6, #11, ...

........................................................................
.............................. CYCLE   26 ..............................
........................................................................

 iter      E             dE          RMSdq      gap      omega  full diag
   1   -519.6224216 -0.519622E+03  0.938E-02    0.02       0.0  T
   2   -518.9872692  0.635152E+00  0.138E+00    0.00       1.0  T
   3   -519.3432978 -0.356029E+00  0.861E-01    0.02       1.0  T
   4   -519.6017127 -0.258415E+00  0.285E-01    0.00       1.0  T
   5   -519.6200534 -0.183406E-01  0.122E-01    0.02       1.0  T
   6   -519.5793894  0.406640E-01  0.395E-01    0.02       1.0  T
   7   -519.5652004  0.141890E-01  0.432E-01    0.00       1.0  T
   8   -519.6222120 -0.570115E-01  0.940E-02    0.02       1.0  T
   9   -519.6073580  0.148539E-01  0.222E-01    0.01       1.0  T
  10   -519.6231885 -0.158305E-01  0.794E-02    0.01       1.0  T
  11   -519.6206910  0.249749E-02  0.112E-01    0.01       1.0  T
  12   -519.6244826 -0.379156E-02  0.479E-02    0.01       1.0  T
  13   -519.6219366  0.254594E-02  0.911E-02    0.02       1.0  T
  14   -519.6251225 -0.318587E-02  0.117E-02    0.02       1.0  T
  15   -519.6251632 -0.407205E-04  0.543E-03    0.01       1.0  T
  16   -519.6251734 -0.101616E-04  0.188E-03    0.01       3.0  T
  17   -519.6251727  0.697169E-06  0.218E-03    0.02       2.6  T
  18   -519.6251736 -0.882980E-06  0.157E-03    0.01       3.6  T
  19   -519.6251744 -0.863567E-06  0.406E-04    0.02      13.9  T
  20   -519.6251744  0.472170E-07  0.518E-04    0.02      10.9  T
     SCC iter.                  ...        0 min,  4.481 sec
     gradient                   ...        0 min,  0.376 sec
 * total energy  :  -513.5621247 Eh     change       -0.1280312E-02 Eh
   gradient norm :     0.0121624 Eh/α   predicted    -0.1143112E-02 ( -10.72%)
   displ. norm   :     0.4278443 α      lambda       -0.1227546E-02
   maximum displ.:     0.2274478 α      in ANC's #3, #9, #6, ...

........................................................................
.............................. CYCLE   27 ..............................
........................................................................

 iter      E             dE          RMSdq      gap      omega  full diag
   1   -519.6231128 -0.519623E+03  0.989E-02    0.02       0.0  T
   2   -519.0721433  0.550970E+00  0.130E+00    0.03       1.0  T
   3   -519.3151070 -0.242964E+00  0.916E-01    0.02       1.0  T
   4   -519.5992156 -0.284109E+00  0.342E-01    0.00       1.0  T
   5   -519.6210148 -0.217992E-01  0.120E-01    0.01       1.0  T
   6   -519.5350160  0.859988E-01  0.517E-01    0.01       1.0  T
   7   -519.5960110 -0.609950E-01  0.299E-01    0.00       1.0  T
   8   -519.6099621 -0.139511E-01  0.211E-01    0.02       1.0  T
   9   -519.6228091 -0.128470E-01  0.103E-01    0.02       1.0  T
  10   -519.6092873  0.135218E-01  0.221E-01    0.00       1.0  T
  11   -519.6188886 -0.960132E-02  0.140E-01    0.01       1.0  T
  12   -519.6178336  0.105493E-02  0.148E-01    0.01       1.0  T
  13   -519.6261965 -0.836285E-02  0.152E-02    0.02       1.0  T
  14   -519.6255453  0.651205E-03  0.445E-02    0.02       1.0  T
  15   -519.6262400 -0.694681E-03  0.818E-03    0.02       1.0  T
  16   -519.6262551 -0.151817E-04  0.475E-03    0.01       1.2  T
  17   -519.6262621 -0.697507E-05  0.145E-03    0.02       3.9  T
  18   -519.6262621  0.977138E-09  0.125E-03    0.02       4.5  T
  19   -519.6262626 -0.515987E-06  0.464E-04    0.02      12.2  T
  20   -519.6262627 -0.273188E-07  0.377E-04    0.02      15.0  T
     SCC iter.                  ...        0 min,  4.066 sec
     gradient                   ...        0 min,  0.350 sec
 * total energy  :  -513.5627033 Eh     change       -0.5786038E-03 Eh
   gradient norm :     0.0164594 Eh/α   predicted    -0.7261250E-03 (  25.50%)
   displ. norm   :     0.1557029 α      lambda       -0.8341041E-03
   maximum displ.:     0.0586422 α      in ANC's #9, #4, #11, ...

........................................................................
.............................. CYCLE   28 ..............................
........................................................................

 iter      E             dE          RMSdq      gap      omega  full diag
[...]
    18   6 C       19   8 O                                       1.1691849
    20   6 C       21   6 C                                       1.3624278
    21   6 C       22   6 C                                       1.4297681
    20   6 C       23   6 C                                       1.4273521
    23   6 C       24   6 C                                       1.4210183
    24   6 C       25   6 C                                       1.3664740
    23   6 C       26   6 C                                       1.4225309
    26   6 C       27   6 C                                       1.4016240
    20   6 C       29   1 H                                       1.0826502
    21   6 C       30   1 H                                       1.0804991
    25   6 C       31   1 H                                       1.0834029
    24   6 C       32   1 H                                       1.0802453
    26   6 C       33   1 H                                       1.0886645
    28   6 C       35   8 O                                       1.2339970
    28   6 C       37   7 N                                       1.4038044
    36   7 N       38   6 C                                       1.3126609
    37   7 N       38   6 C                                       1.4156462
    37   7 N       39   6 C                                       1.4493393
    39   6 C       41   1 H                                       1.0989385
    39   6 C       42   1 H                                       1.0935771
    40   6 C       47   1 H                                       1.0954955
    48   6 C       49   6 C                                       1.5259874
    49   6 C       50   1 H                                       1.0845473
    49   6 C       51   1 H                                       1.0857637
    49   6 C       52   1 H                                       1.0872642
    48   6 C       53   1 H                                       1.0958829
    48   6 C       54   8 O                                       1.4065309
    54   8 O       55   1 H                                       0.9667708
    56   7 N       58   6 C                                       1.4238414
    58   6 C       59   1 H                                       1.0988448
    60   6 C       61   1 H                                       1.0920371
    60   6 C       62   1 H                                       1.0958548
    63   6 C       64   6 C                                       1.3918148
    64   6 C       65   1 H                                       1.0798706
    64   6 C       66   6 C                                       1.3815186
    66   6 C       67   1 H                                       1.0787568
    66   6 C       68   6 C                                       1.3937195
    68   6 C       69   8 O                                       1.3675073
    69   8 O       70   1 H                                       0.9713632
    68   6 C       71   6 C                                       1.3979069
    71   6 C       72   1 H                                       1.0810378
    63   6 C       73   6 C                                       1.3934073
    71   6 C       73   6 C                                       1.3896667
    73   6 C       74   1 H                                       1.0800645
    75   6 C       76   8 O                                       1.2265151
    75   6 C       77   7 N                                       1.3417885
    77   7 N       78   1 H                                       1.0103435
    77   7 N       79   6 C                                       1.4416506
    79   6 C       80   1 H                                       1.0969708
    79   6 C       81   6 C                                       1.5196869
    81   6 C       82   1 H                                       1.0909581
    81   6 C       83   1 H                                       1.0924207
    84   6 C       85   8 O                                       1.2263973
    84   6 C       86   7 N                                       1.3321375
    86   7 N       87   1 H                                       1.0094655
    86   7 N       88   1 H                                       1.0073410
    89   6 C       90   8 O                                       1.2293136
    89   6 C       91   7 N                                       1.3332990
    91   7 N       92   1 H                                       1.0097287
    91   7 N       93   6 C                                       1.4486619
    93   6 C       94   1 H                                       1.0929732
    93   6 C       95   6 C                                       1.5204872
    95   6 C       96   1 H                                       1.0934506
    95   6 C       97   1 H                                       1.0900861
    99   6 C      100   8 O                                       1.2167846
    99   6 C      101   7 N                                       1.3351771
   101   7 N      102   1 H                                       1.0121363
   101   7 N      103   6 C                                       1.4546708
   103   6 C      104   1 H                                       1.0991379
   105   6 C      106   1 H                                       1.0948738
   105   6 C      107   1 H                                       1.0869439
   105   6 C      108   6 C                                       1.4809846
   108   6 C      109   7 N                                       1.3732466
   109   7 N      110   1 H                                       1.0068868
   109   7 N      111   6 C                                       1.3351375
   111   6 C      112   1 H                                       1.0699130
   111   6 C      113   7 N                                       1.3200758
   108   6 C      114   6 C                                       1.3675947
   113   7 N      114   6 C                                       1.3675003
   114   6 C      115   1 H                                       1.0669196
   116   6 C      117   8 O                                       1.2251476
   116   6 C      118   7 N                                       1.3414772
   118   7 N      119   1 H                                       1.0102133
   118   7 N      120   6 C                                       1.4412927
   120   6 C      121   1 H                                       1.0937500
   120   6 C      122   6 C                                       1.5315763
   122   6 C      123   1 H                                       1.0924755
   122   6 C      124   1 H                                       1.0917963
   125   6 C      126   8 O                                       1.2233916
   125   6 C      127   7 N                                       1.3294221
   127   7 N      128   1 H                                       1.0081607
   127   7 N      129   1 H                                       1.0056925
   130   6 C      131   8 O                                       1.1919770
   132   7 N      134   6 C                                       1.3532078
   134   6 C      135   1 H                                       1.0894505
   136   6 C      137   1 H                                       1.0884201
   136   6 C      138   1 H                                       1.0910556
   136   6 C      139   6 C                                       1.5311168
   139   6 C      140   1 H                                       1.0911420
   139   6 C      141   1 H                                       1.0892172
   139   6 C      142   6 C                                       1.5324884
   142   6 C      143   1 H                                       1.0953949
   142   6 C      144   1 H                                       1.0949555
   142   6 C      145   7 N                                       1.4481657
   145   7 N      146   1 H                                       1.0078431
   145   7 N      147   6 C                                       1.3323205
   147   6 C      148   7 N                                       1.3265919
   148   7 N      149   1 H                                       1.0043059
   148   7 N      150   1 H                                       1.0055846
   147   6 C      151   7 N                                       1.3298522
   151   7 N      152   1 H                                       1.0050680
   151   7 N      153   1 H                                       1.0056936
   154   6 C      155   8 O                                       1.1609631
   156   7 N      158   6 C                                       1.4216037
   158   6 C      159   1 H                                       1.0942941
   160   6 C      161   1 H                                       1.0949600
   160   6 C      162   1 H                                       1.0947125
   160   6 C      163   8 O                                       1.3987276
   163   8 O      164   1 H                                       0.9688951
   165   6 C      166   8 O                                       1.2327432
   165   6 C      167   7 N                                       1.3345707
   167   7 N      168   1 H                                       1.0159929
   167   7 N      169   6 C                                       1.4436242
   169   6 C      170   1 H                                       1.0970117
   171   6 C      172   1 H                                       1.1055962
   171   6 C      173   6 C                                       1.5252254
   173   6 C      174   1 H                                       1.0883839
   173   6 C      175   1 H                                       1.0846760
   173   6 C      176   1 H                                       1.0860877
   171   6 C      177   8 O                                       1.4146789
   177   8 O      178   1 H                                       0.9700165
   179   6 C      180   8 O                                       1.2317520
   179   6 C      181   7 N                                       1.3401587
   181   7 N      182   1 H                                       1.0174970
   181   7 N      183   6 C                                       1.4448602
   183   6 C      184   1 H                                       1.1045244
   185   6 C      186   1 H                                       1.0895913
   185   6 C      187   1 H                                       1.0974659
   189   6 C      190   8 O                                       1.2290425
   189   6 C      191   7 N                                       1.3248459
   191   7 N      192   1 H                                       1.0119815
   191   7 N      193   6 C                                       1.4345670
   193   6 C      194   1 H                                       1.0931250
   195   6 C      196   1 H                                       1.0998681
   195   6 C      197   1 H                                       1.0854970
   195   6 C      198   8 O                                       1.4125163
   198   8 O      199   1 H                                       0.9689375
   200   6 C      201   8 O                                       1.2166307
   200   6 C      202   7 N                                       1.3244625
   202   7 N      203   1 H                                       1.0167541
   202   7 N      204   6 C                                       1.4448096
   204   6 C      205   1 H                                       1.0906063
   204   6 C      206   6 C                                       1.5298923
   206   6 C      207   1 H                                       1.0858061
   206   6 C      208   1 H                                       1.0874684
   206   6 C      209   1 H                                       1.0868347
   214   6 C      215   1 H                                       1.0940998
   216   6 C      217   1 H                                       1.0903129
   216   6 C      218   1 H                                       1.0933700
   216   6 C      219   6 C                                       1.5131754
   219   6 C      220   1 H                                       1.0942520
   219   6 C      221   6 C                                       1.5229209
   221   6 C      222   1 H                                       1.0926878
   221   6 C      223   1 H                                       1.0851387
   221   6 C      224   1 H                                       1.0829329
   219   6 C      225   6 C                                       1.5222489
   225   6 C      226   1 H                                       1.0875419
   225   6 C      227   1 H                                       1.0822776
   225   6 C      228   1 H                                       1.0859090
   229   6 C      230   8 O                                       1.2206564
   229   6 C      231   7 N                                       1.3247871
   231   7 N      232   1 H                                       1.0089760
   231   7 N      233   6 C                                       1.4299740
   233   6 C      234   1 H                                       1.0904660
   233   6 C      235   6 C                                       1.5303509
   235   6 C      236   1 H                                       1.0903145
   235   6 C      237   1 H                                       1.0934713
   235   6 C      238   6 C                                       1.5206492
   238   6 C      239   1 H                                       1.0917235
   238   6 C      240   6 C                                       1.5305472
   240   6 C      241   1 H                                       1.0838168
   240   6 C      242   1 H                                       1.0840058
   240   6 C      243   1 H                                       1.0852955
   238   6 C      244   6 C                                       1.5251519
   244   6 C      245   1 H                                       1.0896452
   244   6 C      246   1 H                                       1.0789587
   244   6 C      247   1 H                                       1.0887517
   248   6 C      249   8 O                                       1.2323323
   248   6 C      250   7 N                                       1.3325282
   250   7 N      251   1 H                                       1.0121906
   250   7 N      252   6 C                                       1.4474274
   252   6 C      253   1 H                                       1.0897947
   252   6 C      254   6 C                                       1.5290142
   254   6 C      255   1 H                                       1.0825499
   254   6 C      256   1 H                                       1.0940181
   254   6 C      257   6 C                                       1.5162090
   257   6 C      258   1 H                                       1.0876875
   257   6 C      259   1 H                                       1.0934332
   263   6 C      264   8 O                                       1.2211598
   263   6 C      265   7 N                                       1.3186686
   265   7 N      266   1 H                                       1.0133731
   265   7 N      267   6 C                                       1.4356849
   267   6 C      268   1 H                                       1.0965655
   267   6 C      269   6 C                                       1.5278930
   269   6 C      270   1 H                                       1.0937015
   269   6 C      271   1 H                                       1.0896890
   272   6 C      273   6 C                                       1.3906647
   273   6 C      274   1 H                                       1.0790600
   273   6 C      275   6 C                                       1.3861024
   275   6 C      276   1 H                                       1.0771037
   275   6 C      277   6 C                                       1.3869773
   277   6 C      278   1 H                                       1.0747466
   277   6 C      279   6 C                                       1.3877616
   279   6 C      280   1 H                                       1.0752705
   272   6 C      281   6 C                                       1.3886448
   279   6 C      281   6 C                                       1.3819330
   281   6 C      282   1 H                                       1.0843584
   283   6 C      284   8 O                                       1.2326223
   283   6 C      285   7 N                                       1.3170359
   285   7 N      286   1 H                                       1.0098905
   285   7 N      287   6 C                                       1.4272545
   287   6 C      288   1 H                                       1.0939842
   289   6 C      290   1 H                                       1.0972680
   289   6 C      291   6 C                                       1.5214786
   291   6 C      292   1 H                                       1.0887317
   291   6 C      293   1 H                                       1.0856040
   291   6 C      294   1 H                                       1.0868322
   289   6 C      295   6 C                                       1.5264884
   295   6 C      296   1 H                                       1.0889581
   295   6 C      297   1 H                                       1.0851074
   295   6 C      298   1 H                                       1.0898982
   299   6 C      300   8 O                                       1.2155003
   299   6 C      301   7 N                                       1.3275192
   301   7 N      302   1 H                                       1.0139276
   301   7 N      303   6 C                                       1.4299752
   303   6 C      304   1 H                                       1.0916892
   305   6 C      306   1 H                                       1.1000117
   305   6 C      307   6 C                                       1.5039763
   307   6 C      308   1 H                                       1.0854572
   307   6 C      309   1 H                                       1.0871838
   307   6 C      310   1 H                                       1.0857963
   305   6 C      311   8 O                                       1.3985206
   311   8 O      312   1 H                                       0.9633793 (min)

 * 6 distinct bonds (by element types)

   Z      Z             #   av. dist./Å        max./Å        min./Å
   1 H    6 C         114     1.0890890     1.1055962     1.0669196
   6 C    6 C          45     1.4656388     1.5369822     1.3624278
   1 H    7 N          23     1.0099586     1.0174970     1.0043059
   6 C    7 N          44     1.3785637     1.4546708     1.3126609
   1 H    8 O           6     0.9682271     0.9713632     0.9633793
   6 C    8 O          25     1.2613837     1.4146789     1.1609631


optimized geometry written to: xtbopt.xyz


           -------------------------------------------------
          | TOTAL ENERGY             -513.563536459846 Eh   |
          | GRADIENT NORM               0.002663069685 Eh/α |
          | HOMO-LUMO GAP               0.015090088984 eV   |
           -------------------------------------------------

------------------------------------------------------------------------
 * finished run on 2023/12/04 at 23:56:44.137     
------------------------------------------------------------------------
 total:
 * wall-time:     0 d,  0 h,  3 min, 32.959 sec
 *  cpu-time:     0 d,  1 h, 21 min, 15.544 sec
 * ratio c/w:    22.894 speedup
 SCF:
 * wall-time:     0 d,  0 h,  0 min, 12.213 sec
 *  cpu-time:     0 d,  0 h,  4 min, 33.899 sec
 * ratio c/w:    22.427 speedup
 ANC optimizer:
 * wall-time:     0 d,  0 h,  3 min, 20.542 sec
 *  cpu-time:     0 d,  1 h, 16 min, 37.668 sec
 * ratio c/w:    22.926 speedup
