      -----------------------------------------------------------      
     |                   =====================                   |     
     |                           x T B                           |     
     |                   =====================                   |     
     |                         S. Grimme                         |     
     |          Mulliken Center for Theoretical Chemistry        |     
     |                    University of Bonn                     |     
      -----------------------------------------------------------      

   * xtb version 6.6.1 (8d0f1dd) compiled by 'conda@1efc2f54142f' on 2023-08-01

   xtb is free software: you can redistribute it and/or modify it under
   the terms of the GNU Lesser General Public License as published by
   the Free Software Foundation, either version 3 of the License, or
   (at your option) any later version.
   
   xtb is distributed in the hope that it will be useful,
   but WITHOUT ANY WARRANTY; without even the implied warranty of
   MERCHANTABILITY or FITNESS FOR A PARTICULAR PURPOSE.  See the
   GNU Lesser General Public License for more details.
   
   Cite this work as:
   * C. Bannwarth, E. Caldeweyher, S. Ehlert, A. Hansen, P. Pracht,
     J. Seibert, S. Spicher, S. Grimme, WIREs Comput. Mol. Sci., 2020, 11,
     e01493. DOI: 10.1002/wcms.1493
   
   for GFN2-xTB:
   * C. Bannwarth, S. Ehlert and S. Grimme., J. Chem. Theory Comput., 2019,
     15, 1652-1671. DOI: 10.1021/acs.jctc.8b01176
   for GFN1-xTB:
   * S. Grimme, C. Bannwarth, P. Shushkov, J. Chem. Theory Comput., 2017,
     13, 1989-2009. DOI: 10.1021/acs.jctc.7b00118
   for GFN0-xTB:
   * P. Pracht, E. Caldeweyher, S. Ehlert, S. Grimme, ChemRxiv, 2019, preprint.
     DOI: 10.26434/chemrxiv.8326202.v1
   for GFN-FF:
   * S. Spicher and S. Grimme, Angew. Chem. Int. Ed., 2020, 59, 15665-15673.
     DOI: 10.1002/anie.202004239
   
   for ALPB and GBSA implicit solvation:
   * S. Ehlert, M. Stahn, S. Spicher, S. Grimme, J. Chem. Theory Comput.,
     2021, 17, 4250-4261. DOI: 10.1021/acs.jctc.1c00471
   
   for DFT-D4:
   * E. Caldeweyher, C. Bannwarth and S. Grimme, J. Chem. Phys., 2017,
     147, 034112. DOI: 10.1063/1.4993215
   * E. Caldeweyher, S. Ehlert, A. Hansen, H. Neugebauer, S. Spicher,
     C. Bannwarth and S. Grimme, J. Chem. Phys., 2019, 150, 154122.
     DOI: 10.1063/1.5090222
   * E. Caldeweyher, J.-M. Mewes, S. Ehlert and S. Grimme, Phys. Chem. Chem. Phys.
     2020, 22, 8499-8512. DOI: 10.1039/D0CP00502A
   
   for sTDA-xTB:
   * S. Grimme and C. Bannwarth, J. Chem. Phys., 2016, 145, 054103.
     DOI: 10.1063/1.4959605
   
   in the mass-spec context:
   * V. Asgeirsson, C. Bauer and S. Grimme, Chem. Sci., 2017, 8, 4879.
     DOI: 10.1039/c7sc00601b
   * J. Koopman and S. Grimme, ACS Omega 2019, 4, 12, 15120-15133.
     DOI: 10.1021/acsomega.9b02011
   
   for metadynamics refer to:
   * S. Grimme, J. Chem. Theory Comput., 2019, 155, 2847-2862
     DOI: 10.1021/acs.jctc.9b00143
   
   for SPH calculations refer to:
   * S. Spicher and S. Grimme, J. Chem. Theory Comput., 2021, 17, 1701-1714
     DOI: 10.1021/acs.jctc.0c01306
   
   with help from (in alphabetical order)
   P. Atkinson, C. Bannwarth, F. Bohle, G. Brandenburg, E. Caldeweyher
   M. Checinski, S. Dohm, S. Ehlert, S. Ehrlich, I. Gerasimov, C. Hölzer
   A. Katbashev, J. Koopman, C. Lavigne, S. Lehtola, F. März, M. Müller,
   F. Musil, H. Neugebauer, J. Pisarek, C. Plett, P. Pracht, F. Pultar,
   J. Seibert, P. Shushkov, S. Spicher, M. Stahn, M. Steiner, T. Strunk,
   J. Stückrath, T. Rose, and J. Unsleber
   
 * started run on 2024/01/20 at 14:14:41.665     

           -------------------------------------------------
          |                Calculation Setup                |
           -------------------------------------------------

          program call               : xtb initial.xyz --opt loose --gfn 2 --alpb water --input opt.in
          coordinate file            : initial.xyz
          omp threads                :                    24

   ID    Z sym.   atoms
    1    7 N      1, 36, 37, 45, 56, 77, 86, 91, 101, 109, 113, 118, 127,
                  132, 145, 148, 151, 156, 167, 181, 191, 202, 212, 231, 250,
                  265, 285, 301
    2    1 H      2, 4, 6, 7, 9, 11-13, 15-17, 29-33, 41, 42, 46, 47, 50-53,
                  55, 57, 59, 61, 62, 65, 67, 70, 72, 74, 78, 80, 82, 83, 87,
                  88, 92, 94, 96, 97, 102, 104, 106, 107, 110, 112, 115, 119,
                  121, 123, 124, 128, 129, 133, 135, 137, 138, 140, 141, 143,
                  144, 146, 149, 150, 152, 153, 157, 159, 161, 162, 164, 168,
                  170, 172, 174-176, 178, 182, 184, 186, 187, 192, 194, 196,
                  197, 199, 203, 205, 207-209, 213, 215, 217, 218, 220,
                  222-224, 226-228, 232, 234, 236, 237, 239, 241-243,
                  245-247, 251, 253, 255, 256, 258, 259, 266, 268, 270, 271,
                  274, 276, 278, 280, 282, 286, 288, 290, 292-294, 296-298,
                  302, 304, 306, 308-310, 312
    3    6 C      3, 5, 8, 10, 14, 18, 20-28, 38-40, 43, 48, 49, 58, 60, 63,
                  64, 66, 68, 71, 73, 75, 79, 81, 84, 89, 93, 95, 99, 103,
                  105, 108, 111, 114, 116, 120, 122, 125, 130, 134, 136, 139,
                  142, 147, 154, 158, 160, 165, 169, 171, 173, 179, 183, 185,
                  189, 193, 195, 200, 204, 206, 210, 214, 216, 219, 221, 225,
                  229, 233, 235, 238, 240, 244, 248, 252, 254, 257, 260, 263,
                  267, 269, 272, 273, 275, 277, 279, 281, 283, 287, 289, 291,
                  295, 299, 303, 305, 307, 313
    4    8 O      19, 34, 35, 44, 54, 69, 76, 85, 90, 100, 117, 126, 131,
                  155, 163, 166, 177, 180, 190, 198, 201, 211, 230, 249, 261,
                  262, 264, 284, 300, 311, 314
    5   16 S      98, 188

molecular fragmentation (1/2 indicates fragments):
111111111111111111122222222222222222222222222222222222222222222222222222
222222222222222222222222222222222222222222222222222222222222222222222222
222222222222222222222222222222222222222222222222222222222222222222222222
222222222222222222222222222222222222222222222222222222222222222222222222
22222222222222222222222222
# atoms in fragment 1/2:    19   295
 fragment masses (1/2) :      113.16     2238.44
CMA distance (Bohr)    :  17.938
constraining FC (au)   :  0.5000

           -------------------------------------------------
          |                 G F N 2 - x T B                 |
           -------------------------------------------------

        Reference                      10.1021/acs.jctc.8b01176
      * Hamiltonian:
        H0-scaling (s, p, d)           1.850000    2.230000    2.230000
        zeta-weighting                 0.500000
      * Dispersion:
        s8                             2.700000
        a1                             0.520000
        a2                             5.000000
        s9                             5.000000
      * Repulsion:
        kExp                           1.500000    1.000000
        rExp                           1.000000
      * Coulomb:
        alpha                          2.000000
        third order                    shell-resolved
        anisotropic                    true
        a3                             3.000000
        a5                             4.000000
        cn-shift                       1.200000
        cn-exp                         4.000000
        max-rad                        5.000000

      * Solvation model:               ALPB
        Solvent                        water
        Parameter file                 internal GFN2-xTB/ALPB
        Dielectric constant                8.0200E+01
        Reference state                gsolv [1 M gas/solution]
        Free energy shift                  1.0808E-03 Eh       6.7819E-01 kcal/mol
        Temperature                        2.9815E+02 K
        Density                            1.0000E+00 kg/L
        Solvent mass                       1.8000E+01 g/mol
        Interaction kernel             P16
        Born radius scaling (c1)           1.4744E+00
        Born radii integrator          GBOBC
        Born offset                        0.0000E+00 a0       0.0000E+00 AA
        H-bond correction              true
        Ion screening                  false
        Surface tension                    1.0000E-05 Eh       1.5569E+01 dyn/cm
        Grid points                               230 per atom

          ...................................................
          :                      SETUP                      :
          :.................................................:
          :  # basis functions                 821          :
          :  # atomic orbitals                 819          :
          :  # shells                          481          :
          :  # electrons                       906          :
          :  max. iterations                   250          :
          :  Hamiltonian                  GFN2-xTB          :
          :  restarted?                      false          :
          :  GBSA solvation                   true          :
          :  PC potential                    false          :
          :  electronic temp.          300.0000000     K    :
          :  accuracy                    1.0000000          :
          :  -> integral cutoff          0.2500000E+02      :
          :  -> integral neglect         0.1000000E-07      :
          :  -> SCF convergence          0.1000000E-05 Eh   :
          :  -> wf. convergence          0.1000000E-03 e    :
          :  Broyden damping             0.4000000          :
          ...................................................

 iter      E             dE          RMSdq      gap      omega  full diag
   1   -517.8726339 -0.517873E+03  0.469E+00    0.41       0.0  T
   2   -509.9908776  0.788176E+01  0.561E+00    0.24       1.0  T
   3   -518.7626182 -0.877174E+01  0.286E+00    0.07       1.0  T
   4   -518.8477939 -0.851758E-01  0.241E+00    0.01       1.0  T
   5   -518.7333217  0.114472E+00  0.284E+00    0.18       1.0  T
   6   -519.1692069 -0.435885E+00  0.184E+00    0.01       1.0  T
   7   -519.1128697  0.563372E-01  0.283E+00    0.04       1.0  T
   8   -519.5548439 -0.441974E+00  0.161E+00    0.06       1.0  T
   9   -519.4278833  0.126961E+00  0.178E+00    0.05       1.0  T
  10   -519.5096647 -0.817814E-01  0.228E+00    0.01       1.0  T
  11   -519.4003001  0.109365E+00  0.174E+00    0.06       1.0  T
  12   -519.3082610  0.920391E-01  0.187E+00    0.05       1.0  T
  13   -519.2149991  0.932619E-01  0.200E+00    0.06       1.0  T
  14   -519.3478037 -0.132805E+00  0.187E+00    0.09       1.0  T
  15   -519.3248340  0.229697E-01  0.180E+00    0.03       1.0  T
  16   -519.2207146  0.104119E+00  0.179E+00    0.06       1.0  T
  17   -519.3226700 -0.101955E+00  0.191E+00    0.04       1.0  T
  18   -519.4879038 -0.165234E+00  0.177E+00    0.02       1.0  T
  19   -519.7544656 -0.266562E+00  0.130E+00    0.02       1.0  T
  20   -519.6693135  0.851520E-01  0.135E+00    0.01       1.0  T
  21   -519.6865387 -0.172251E-01  0.128E+00    0.01       1.0  T
  22   -519.9454411 -0.258902E+00  0.990E-01    0.01       1.0  T
  23   -519.9057164  0.397248E-01  0.103E+00    0.01       1.0  T
  24   -520.0660169 -0.160301E+00  0.929E-01    0.00       1.0  T
  25   -520.1145233 -0.485064E-01  0.752E-01    0.01       1.0  T
  26   -520.0957699  0.187534E-01  0.868E-01    0.00       1.0  T
  27   -520.0919118  0.385810E-02  0.780E-01    0.03       1.0  T
  28   -520.0506638  0.412480E-01  0.883E-01    0.01       1.0  T
  29   -520.1668777 -0.116214E+00  0.597E-01    0.01       1.0  T
  30   -520.1364805  0.303972E-01  0.656E-01    0.01       1.0  T
  31   -520.1530199 -0.165394E-01  0.622E-01    0.00       1.0  T
  32   -520.1541153 -0.109539E-02  0.624E-01    0.00       1.0  T
  33   -520.1607193 -0.660404E-02  0.586E-01    0.00       1.0  T
  34   -520.1864530 -0.257337E-01  0.504E-01    0.00       1.0  T
  35   -520.2364380 -0.499851E-01  0.312E-01    0.00       1.0  T
  36   -520.2666042 -0.301661E-01  0.704E-02    0.00       1.0  T
  37   -520.2657670  0.837124E-03  0.894E-02    0.00       1.0  T
  38   -520.2632132  0.255380E-02  0.111E-01    0.00       1.0  T
  39   -520.2642385 -0.102523E-02  0.106E-01    0.00       1.0  T
  40   -520.2673689 -0.313045E-02  0.466E-02    0.00       1.0  T
  41   -520.2658413  0.152757E-02  0.749E-02    0.00       1.0  T
  42   -520.2676836 -0.184227E-02  0.238E-02    0.00       1.0  T
  43   -520.2676542  0.294614E-04  0.250E-02    0.00       1.0  T
  44   -520.2678282 -0.174005E-03  0.101E-02    0.00       1.0  T
  45   -520.2677747  0.535088E-04  0.158E-02    0.00       1.0  T
  46   -520.2678469 -0.722344E-04  0.608E-03    0.00       1.0  T
  47   -520.2678434  0.352879E-05  0.687E-03    0.00       1.0  T
  48   -520.2678559 -0.124952E-04  0.375E-03    0.00       1.5  T
  49   -520.2678575 -0.169160E-05  0.277E-03    0.00       2.0  T
  50   -520.2678600 -0.244402E-05  0.105E-03    0.00       5.4  T
  51   -520.2678602 -0.164495E-06  0.699E-04    0.00       8.1  T
  52   -520.2678603 -0.104287E-06  0.310E-04    0.00      18.2  T

   *** convergence criteria satisfied after 52 iterations ***

         #    Occupation            Energy/Eh            Energy/eV
      -------------------------------------------------------------
         1        2.0000           -0.7692383             -20.9320
       ...           ...                  ...                  ...
       447        1.9252           -0.3511483              -9.5552
       448        1.7483           -0.3499038              -9.5214
       449        1.3240           -0.3487008              -9.4886
       450        1.3078           -0.3486667              -9.4877
       451        1.2250           -0.3484972              -9.4831
       452        1.2001           -0.3484478              -9.4817
       453        1.0891           -0.3482320              -9.4759 (HOMO)
       454        1.0637           -0.3481835              -9.4746 (LUMO)
       455        1.0406           -0.3481395              -9.4734
       456        1.0262           -0.3481121              -9.4726
       457        1.0037           -0.3480693              -9.4714
       458        0.0474           -0.3445305              -9.3752
       ...           ...                  ...                  ...
       819                          0.7414350              20.1755
      -------------------------------------------------------------
                  HL-Gap            0.0000486 Eh            0.0013 eV
             Fermi-level           -0.3480623 Eh           -9.4713 eV

 SCC (total)                   0 d,  0 h,  0 min, 17.987 sec
 SCC setup                      ...        0 min,  0.058 sec (  0.323%)
 Dispersion                     ...        0 min,  0.040 sec (  0.222%)
 classical contributions        ...        0 min,  0.027 sec (  0.148%)
 integral evaluation            ...        0 min,  0.065 sec (  0.363%)
 iterations                     ...        0 min, 17.410 sec ( 96.793%)
 molecular gradient             ...        0 min,  0.365 sec (  2.031%)
 printout                       ...        0 min,  0.022 sec (  0.120%)

         :::::::::::::::::::::::::::::::::::::::::::::::::::::
         ::                     SUMMARY                     ::
         :::::::::::::::::::::::::::::::::::::::::::::::::::::
         :: total energy            -512.690647037021 Eh    ::
         :: total w/o Gsasa/hb      -512.640166757643 Eh    ::
         :: gradient norm              1.055047175943 Eh/a0 ::
         :: HOMO-LUMO gap              0.001322186636 eV    ::
         ::.................................................::
         :: SCC energy              -520.267860262479 Eh    ::
         :: -> isotropic ES            2.094686673226 Eh    ::
         :: -> anisotropic ES         -0.107014206806 Eh    ::
         :: -> anisotropic XC          0.152119880527 Eh    ::
         :: -> dispersion             -0.428483157211 Eh    ::
         :: -> Gsolv                  -0.826973901274 Eh    ::
         ::    -> Gelec               -0.776493621895 Eh    ::
         ::    -> Gsasa                0.002959724245 Eh    ::
         ::    -> Ghb                 -0.054520763322 Eh    ::
         ::    -> Gshift               0.001080759698 Eh    ::
         :: repulsion energy           7.541985403753 Eh    ::
         :: add. restraining           0.000000000000 Eh    ::
         :: total charge              -3.000000000000 e     ::
         :::::::::::::::::::::::::::::::::::::::::::::::::::::

      ----------------------------------------------------------- 
     |                   =====================                   |
     |                        A N C O P T                        |
     |                   =====================                   |
     |               Approximate Normal Coordinate               |
     |                Rational Function Optimizer                |
      ----------------------------------------------------------- 

          ...................................................
          :                      SETUP                      :
          :.................................................:
          :   optimization level             loose          :
          :   max. optcycles                   628          :
          :   ANC micro-cycles                  20          :
          :   degrees of freedom               936          :
          :.................................................:
          :   RF solver                   davidson          :
          :   write xtbopt.log                true          :
          :   linear?                        false          :
          :   energy convergence         0.5000000E-04 Eh   :
          :   grad. convergence          0.4000000E-02 Eh/α :
          :   maxmium RF displ.          1.0000000          :
          :   Hlow (freq-cutoff)         0.1000000E-01      :
          :   Hmax (freq-cutoff)         5.0000000          :
          :   S6 in model hess.         20.0000000          :
          ...................................................

generating ANC from model Hessian ...
Using Lindh-Hessian (1995)
 Shifting diagonal of input Hessian by    5.8221493890719444E-003
 Lowest  eigenvalues of input Hessian
    0.000000    0.000000    0.000000    0.000000    0.000000    0.000000
    0.010000    0.011019    0.011584    0.011625    0.011656    0.012091
    0.014482    0.014960    0.015402    0.015503    0.015979    0.016165
 Highest eigenvalues
    2.793281    2.805917    2.828118    2.830054    2.873923    3.070396


........................................................................
.............................. CYCLE    1 ..............................
........................................................................

 iter      E             dE          RMSdq      gap      omega  full diag
   1   -520.2678603 -0.520268E+03  0.168E-04    0.00       0.0  T
   2   -520.2678565  0.374051E-05  0.399E-03    0.00       1.4  T
   3   -520.2678599 -0.336303E-05  0.116E-03    0.00       4.9  T
   4   -520.2678601 -0.206623E-06  0.746E-04    0.00       7.6  T
   5   -520.2678601  0.416400E-07  0.826E-04    0.00       6.8  T
     SCC iter.                  ...        0 min,  1.575 sec
     gradient                   ...        0 min,  0.345 sec
 * total energy  :  -512.6906468 Eh     change        0.1946762E-06 Eh
   gradient norm :     1.0550470 Eh/α   predicted     0.0000000E+00 (-100.00%)
   displ. norm   :     0.6663680 α      lambda       -0.6484407E+00
   maximum displ.:     0.1214833 α      in ANC's #571, #577, #573, ...

........................................................................
.............................. CYCLE    2 ..............................
........................................................................

 iter      E             dE          RMSdq      gap      omega  full diag
   1   -519.3916680 -0.519392E+03  0.141E+00    0.17       0.0  T
   2   -510.3113654  0.908030E+01  0.541E+00    0.03       1.0  T
   3   -519.1666911 -0.885533E+01  0.200E+00    0.06       1.0  T
   4   -518.7253485  0.441343E+00  0.272E+00    0.11       1.0  T
   5   -519.0934227 -0.368074E+00  0.182E+00    0.11       1.0  T
   6   -519.4155242 -0.322102E+00  0.144E+00    0.03       1.0  T
   7   -519.4140067  0.151753E-02  0.140E+00    0.02       1.0  T
   8   -519.5274077 -0.113401E+00  0.129E+00    0.01       1.0  T
   9   -519.8297729 -0.302365E+00  0.909E-01    0.00       1.0  T
  10   -519.9289894 -0.992165E-01  0.637E-01    0.00       1.0  T
  11   -519.7429356  0.186054E+00  0.971E-01    0.04       1.0  T
  12   -519.8346020 -0.916664E-01  0.816E-01    0.03       1.0  T
  13   -519.8715505 -0.369485E-01  0.692E-01    0.01       1.0  T
  14   -519.9364783 -0.649278E-01  0.585E-01    0.00       1.0  T
  15   -519.9305615  0.591681E-02  0.580E-01    0.00       1.0  T
  16   -520.0113595 -0.807981E-01  0.382E-01    0.00       1.0  T
  17   -520.0199520 -0.859246E-02  0.333E-01    0.00       1.0  T
  18   -520.0459386 -0.259866E-01  0.208E-01    0.01       1.0  T
  19   -520.0552578 -0.931921E-02  0.140E-01    0.00       1.0  T
  20   -520.0600361 -0.477831E-02  0.719E-02    0.00       1.0  T
  21   -520.0600904 -0.542700E-04  0.706E-02    0.00       1.0  T
  22   -520.0615143 -0.142392E-02  0.310E-02    0.00       1.0  T
  23   -520.0602174  0.129690E-02  0.686E-02    0.00       1.0  T
  24   -520.0616788 -0.146145E-02  0.220E-02    0.00       1.0  T
  25   -520.0618257 -0.146912E-03  0.771E-03    0.00       1.0  T
  26   -520.0618385 -0.127597E-04  0.481E-03    0.00       1.2  T
  27   -520.0618454 -0.685540E-05  0.204E-03    0.00       2.8  T
  28   -520.0618432  0.216538E-05  0.334E-03    0.00       1.7  T
  29   -520.0618465 -0.327346E-05  0.769E-04    0.00       7.3  T
  30   -520.0618462  0.228854E-06  0.114E-03    0.00       5.0  T
  31   -520.0618466 -0.325181E-06  0.591E-04    0.00       9.5  T
  32   -520.0618465  0.513103E-07  0.620E-04    0.00       9.1  T
     SCC iter.                  ...        0 min, 11.982 sec
     gradient                   ...        0 min,  0.343 sec
 * total energy  :  -513.1800870 Eh     change       -0.4894401E+00 Eh
   gradient norm :     0.5262691 Eh/α   predicted    -0.4681962E+00 (  -4.34%)
   displ. norm   :     0.6329953 α      lambda       -0.2963366E+00
   maximum displ.:     0.1022957 α      in ANC's #571, #584, #576, ...

........................................................................
.............................. CYCLE    3 ..............................
........................................................................

 iter      E             dE          RMSdq      gap      omega  full diag
   1   -519.2964602 -0.519296E+03  0.134E+00    0.16       0.0  T
   2   -510.4161230  0.888034E+01  0.538E+00    0.01       1.0  T
   3   -518.8017830 -0.838566E+01  0.193E+00    0.08       1.0  T
   4   -518.0346147  0.767168E+00  0.355E+00    0.13       1.0  T
   5   -519.1142920 -0.107968E+01  0.167E+00    0.03       1.0  T
   6   -519.1695890 -0.552971E-01  0.156E+00    0.06       1.0  T
   7   -519.3398338 -0.170245E+00  0.138E+00    0.05       1.0  T
   8   -519.5082908 -0.168457E+00  0.110E+00    0.01       1.0  T
   9   -519.5901136 -0.818229E-01  0.926E-01    0.00       1.0  T
  10   -519.5048629  0.852508E-01  0.111E+00    0.01       1.0  T
  11   -519.4415860  0.632768E-01  0.115E+00    0.04       1.0  T
  12   -519.4959547 -0.543687E-01  0.108E+00    0.04       1.0  T
  13   -519.6309438 -0.134989E+00  0.821E-01    0.01       1.0  T
  14   -519.6893065 -0.583627E-01  0.718E-01    0.00       1.0  T
  15   -519.8378443 -0.148538E+00  0.423E-01    0.01       1.0  T
  16   -519.8712095 -0.333652E-01  0.236E-01    0.00       1.0  T
  17   -519.8801628 -0.895331E-02  0.204E-01    0.01       1.0  T
  18   -519.8746548  0.550796E-02  0.228E-01    0.00       1.0  T
  19   -519.8871742 -0.125194E-01  0.115E-01    0.00       1.0  T
  20   -519.8907566 -0.358238E-02  0.497E-02    0.01       1.0  T
  21   -519.8912937 -0.537136E-03  0.302E-02    0.01       1.0  T
  22   -519.8911708  0.122871E-03  0.360E-02    0.01       1.0  T
  23   -519.8910815  0.893387E-04  0.386E-02    0.01       1.0  T
  24   -519.8915472 -0.465689E-03  0.128E-02    0.01       1.0  T
  25   -519.8915796 -0.323629E-04  0.795E-03    0.01       1.0  T
  26   -519.8915981 -0.185147E-04  0.360E-03    0.01       1.6  T
  27   -519.8915986 -0.519841E-06  0.331E-03    0.01       1.7  T
  28   -519.8916012 -0.262637E-05  0.168E-03    0.01       3.4  T
  29   -519.8916019 -0.726482E-06  0.845E-04    0.01       6.7  T
  30   -519.8916021 -0.151147E-06  0.507E-04    0.01      11.1  T
     SCC iter.                  ...        0 min,  9.632 sec
     gradient                   ...        0 min,  0.386 sec
 * total energy  :  -513.3993597 Eh     change       -0.2192727E+00 Eh
   gradient norm :     0.2333511 Eh/α   predicted    -0.2075407E+00 (  -5.35%)
   displ. norm   :     0.6474249 α      lambda       -0.1306677E+00
   maximum displ.:     0.0933165 α      in ANC's #151, #348, #571, ...

........................................................................
.............................. CYCLE    4 ..............................
........................................................................

 iter      E             dE          RMSdq      gap      omega  full diag
   1   -519.3929426 -0.519393E+03  0.101E+00    0.09       0.0  T
   2   -512.5571100  0.683583E+01  0.475E+00    0.02       1.0  T
   3   -518.7138343 -0.615672E+01  0.185E+00    0.00       1.0  T
   4   -518.5025157  0.211319E+00  0.253E+00    0.04       1.0  T
   5   -519.1836889 -0.681173E+00  0.130E+00    0.00       1.0  T
   6   -519.2237267 -0.400378E-01  0.125E+00    0.00       1.0  T
   7   -519.3570247 -0.133298E+00  0.110E+00    0.01       1.0  T
   8   -519.5526743 -0.195650E+00  0.719E-01    0.01       1.0  T
   9   -519.5513090  0.136528E-02  0.712E-01    0.00       1.0  T
  10   -519.4194754  0.131834E+00  0.955E-01    0.01       1.0  T
  11   -519.3798884  0.395870E-01  0.973E-01    0.05       1.0  T
  12   -519.4508776 -0.709892E-01  0.891E-01    0.01       1.0  T
  13   -519.6196150 -0.168737E+00  0.544E-01    0.01       1.0  T
  14   -519.7074362 -0.878212E-01  0.274E-01    0.01       1.0  T
  15   -519.6663203  0.411159E-01  0.439E-01    0.01       1.0  T
  16   -519.7062297 -0.399094E-01  0.260E-01    0.00       1.0  T
  17   -519.7138013 -0.757158E-02  0.203E-01    0.01       1.0  T
  18   -519.7235628 -0.976153E-02  0.118E-01    0.00       1.0  T
  19   -519.7258466 -0.228374E-02  0.813E-02    0.01       1.0  T
  20   -519.7281526 -0.230608E-02  0.172E-02    0.01       1.0  T
  21   -519.7277952  0.357482E-03  0.354E-02    0.01       1.0  T
  22   -519.7281713 -0.376130E-03  0.119E-02    0.01       1.0  T
  23   -519.7281980 -0.267054E-04  0.762E-03    0.01       1.0  T
  24   -519.7282006 -0.258734E-05  0.673E-03    0.01       1.0  T
  25   -519.7282017 -0.113362E-05  0.645E-03    0.01       1.0  T
  26   -519.7282096 -0.790074E-05  0.406E-03    0.01       1.4  T
  27   -519.7282142 -0.456908E-05  0.206E-03    0.01       2.7  T
  28   -519.7282151 -0.884002E-06  0.131E-03    0.01       4.3  T
  29   -519.7282150  0.275061E-07  0.130E-03    0.01       4.4  T
  30   -519.7282155 -0.438890E-06  0.630E-04    0.01       9.0  T
  31   -519.7282156 -0.125776E-06  0.227E-04    0.01      24.9  T
     SCC iter.                  ...        0 min, 10.348 sec
     gradient                   ...        0 min,  0.387 sec
 * total energy  :  -513.4960749 Eh     change       -0.9671517E-01 Eh
   gradient norm :     0.1046148 Eh/α   predicted    -0.9271918E-01 (  -4.13%)
   displ. norm   :     0.6713145 α      lambda       -0.5914155E-01
   maximum displ.:     0.1302572 α      in ANC's #151, #11, #87, ...

........................................................................
.............................. CYCLE    5 ..............................
........................................................................

 iter      E             dE          RMSdq      gap      omega  full diag
   1   -519.4336613 -0.519434E+03  0.780E-01    0.05       0.0  T
   2   -514.5298056  0.490386E+01  0.433E+00    0.15       1.0  T
   3   -518.3712062 -0.384140E+01  0.203E+00    0.22       1.0  T
   4   -518.6964553 -0.325249E+00  0.216E+00    0.02       1.0  T
   5   -519.0205475 -0.324092E+00  0.156E+00    0.01       1.0  T
   6   -519.0741350 -0.535875E-01  0.128E+00    0.01       1.0  T
   7   -519.2507141 -0.176579E+00  0.106E+00    0.01       1.0  T
   8   -519.3919628 -0.141249E+00  0.851E-01    0.01       1.0  T
   9   -519.4433911 -0.514284E-01  0.740E-01    0.01       1.0  T
  10   -519.5795938 -0.136203E+00  0.391E-01    0.01       1.0  T
  11   -519.2540433  0.325550E+00  0.103E+00    0.02       1.0  T
  12   -519.6122274 -0.358184E+00  0.236E-01    0.01       1.0  T
  13   -519.5511594  0.610680E-01  0.468E-01    0.00       1.0  T
  14   -519.6292103 -0.780509E-01  0.815E-02    0.01       1.0  T
  15   -519.6078530  0.213573E-01  0.254E-01    0.01       1.0  T
  16   -519.6101911 -0.233810E-02  0.236E-01    0.01       1.0  T
  17   -519.6267963 -0.166052E-01  0.110E-01    0.01       1.0  T
  18   -519.6242969  0.249944E-02  0.134E-01    0.01       1.0  T
  19   -519.6304270 -0.613014E-02  0.396E-02    0.01       1.0  T
  20   -519.6307731 -0.346020E-03  0.222E-02    0.01       1.0  T
  21   -519.6307331  0.399545E-04  0.239E-02    0.01       1.0  T
  22   -519.6308985 -0.165426E-03  0.817E-03    0.01       1.0  T
  23   -519.6308908  0.772111E-05  0.910E-03    0.01       1.0  T
  24   -519.6308991 -0.826214E-05  0.774E-03    0.01       1.0  T
  25   -519.6309206 -0.215128E-04  0.143E-03    0.01       3.9  T
  26   -519.6309206 -0.157338E-07  0.119E-03    0.01       4.8  T
  27   -519.6309194  0.120917E-05  0.220E-03    0.01       2.6  T
  28   -519.6309210 -0.164942E-05  0.421E-04    0.01      13.4  T
  29   -519.6309211 -0.927832E-08  0.325E-04    0.01      17.4  T
  30   -519.6309211 -0.295803E-07  0.154E-04    0.01      36.6  T
     SCC iter.                  ...        0 min,  9.148 sec
     gradient                   ...        0 min,  0.362 sec
 * total energy  :  -513.5409868 Eh     change       -0.4491192E-01 Eh
   gradient norm :     0.0635315 Eh/α   predicted    -0.4289735E-01 (  -4.49%)
   displ. norm   :     0.6714707 α      lambda       -0.3088209E-01
   maximum displ.:     0.1460397 α      in ANC's #11, #87, #151, ...

........................................................................
.............................. CYCLE    6 ..............................
........................................................................

 iter      E             dE          RMSdq      gap      omega  full diag
   1   -519.3946890 -0.519395E+03  0.785E-01    0.03       0.0  T
   2   -514.5295208  0.486517E+01  0.432E+00    0.12       1.0  T
   3   -518.6178644 -0.408834E+01  0.178E+00    0.05       1.0  T
   4   -518.6637518 -0.458874E-01  0.211E+00    0.03       1.0  T
   5   -519.0319031 -0.368151E+00  0.149E+00    0.01       1.0  T
   6   -519.0782526 -0.463496E-01  0.125E+00    0.02       1.0  T
   7   -519.1905723 -0.112320E+00  0.109E+00    0.01       1.0  T
   8   -519.3248354 -0.134263E+00  0.895E-01    0.01       1.0  T
   9   -519.3423099 -0.174745E-01  0.829E-01    0.01       1.0  T
  10   -519.5269817 -0.184672E+00  0.446E-01    0.03       1.0  T
  11   -519.0759546  0.451027E+00  0.120E+00    0.02       1.0  T
  12   -519.4460641 -0.370109E+00  0.649E-01    0.03       1.0  T
  13   -519.5653362 -0.119272E+00  0.299E-01    0.00       1.0  T
  14   -519.4481029  0.117233E+00  0.667E-01    0.00       1.0  T
  15   -519.5781843 -0.130081E+00  0.223E-01    0.01       1.0  T
  16   -519.5865677 -0.838345E-02  0.167E-01    0.00       1.0  T
  17   -519.5734422  0.131255E-01  0.256E-01    0.02       1.0  T
  18   -519.5927999 -0.193576E-01  0.976E-02    0.01       1.0  T
  19   -519.5953140 -0.251410E-02  0.474E-02    0.02       1.0  T
  20   -519.5959366 -0.622610E-03  0.201E-02    0.01       1.0  T
  21   -519.5958772  0.593517E-04  0.235E-02    0.02       1.0  T
  22   -519.5960517 -0.174438E-03  0.788E-03    0.02       1.0  T
  23   -519.5960661 -0.144346E-04  0.461E-03    0.01       1.2  T
  24   -519.5960611  0.503442E-05  0.593E-03    0.01       1.0  T
  25   -519.5960667 -0.561573E-05  0.437E-03    0.01       1.3  T
  26   -519.5960724 -0.572007E-05  0.177E-03    0.01       3.2  T
  27   -519.5960728 -0.371347E-06  0.132E-03    0.01       4.3  T
  28   -519.5960731 -0.314204E-06  0.884E-04    0.01       6.4  T
  29   -519.5960732 -0.165488E-06  0.520E-04    0.01      10.9  T
     SCC iter.                  ...        0 min,  8.837 sec
     gradient                   ...        0 min,  0.399 sec
 * total energy  :  -513.5650049 Eh     change       -0.2401812E-01 Eh
   gradient norm :     0.0580274 Eh/α   predicted    -0.2240324E-01 (  -6.72%)
   displ. norm   :     0.6503313 α      lambda       -0.1867592E-01
   maximum displ.:     0.1476000 α      in ANC's #30, #87, #71, ...

........................................................................
.............................. CYCLE    7 ..............................
........................................................................

 iter      E             dE          RMSdq      gap      omega  full diag
   1   -519.3982244 -0.519398E+03  0.780E-01    0.02       0.0  T
   2   -514.8308497  0.456737E+01  0.395E+00    0.10       1.0  T
   3   -518.7623522 -0.393150E+01  0.164E+00    0.03       1.0  T
   4   -518.4077552  0.354597E+00  0.242E+00    0.03       1.0  T
   5   -519.0026711 -0.594916E+00  0.142E+00    0.02       1.0  T
   6   -518.9939715  0.869954E-02  0.135E+00    0.02       1.0  T
   7   -519.1653037 -0.171332E+00  0.112E+00    0.00       1.0  T
   8   -519.2702753 -0.104972E+00  0.992E-01    0.02       1.0  T
   9   -519.3792840 -0.109009E+00  0.807E-01    0.01       1.0  T
  10   -519.5732794 -0.193995E+00  0.288E-01    0.00       1.0  T
  11   -519.1823491  0.390930E+00  0.112E+00    0.01       1.0  T
  12   -519.5032779 -0.320929E+00  0.525E-01    0.02       1.0  T
  13   -519.5406250 -0.373471E-01  0.404E-01    0.01       1.0  T
  14   -519.4196551  0.120970E+00  0.706E-01    0.02       1.0  T
  15   -519.5866054 -0.166950E+00  0.199E-01    0.00       1.0  T
  16   -519.5782309  0.837447E-02  0.250E-01    0.01       1.0  T
  17   -519.5983009 -0.200700E-01  0.689E-02    0.02       1.0  T
  18   -519.5994791 -0.117829E-02  0.366E-02    0.01       1.0  T
  19   -519.5997456 -0.266437E-03  0.235E-02    0.02       1.0  T
  20   -519.5997105  0.350590E-04  0.253E-02    0.02       1.0  T
  21   -519.5999035 -0.192991E-03  0.101E-02    0.02       1.0  T
  22   -519.5999268 -0.233356E-04  0.554E-03    0.02       1.0  T
  23   -519.5999241  0.272300E-05  0.603E-03    0.02       1.0  T
  24   -519.5999329 -0.873843E-05  0.334E-03    0.02       1.7  T
  25   -519.5999357 -0.285356E-05  0.176E-03    0.02       3.2  T
  26   -519.5999367 -0.951806E-06  0.597E-04    0.02       9.4  T
  27   -519.5999368 -0.100682E-06  0.262E-04    0.02      21.5  T
     SCC iter.                  ...        0 min,  8.452 sec
     gradient                   ...        0 min,  0.382 sec
 * total energy  :  -513.5796748 Eh     change       -0.1466986E-01 Eh
   gradient norm :     0.0515318 Eh/α   predicted    -0.1328728E-01 (  -9.42%)
   displ. norm   :     0.6418951 α      lambda       -0.1270584E-01
   maximum displ.:     0.1527928 α      in ANC's #30, #11, #20, ...

........................................................................
.............................. CYCLE    8 ..............................
........................................................................

 iter      E             dE          RMSdq      gap      omega  full diag
   1   -519.4432732 -0.519443E+03  0.735E-01    0.02       0.0  T
   2   -516.0599068  0.338337E+01  0.330E+00    0.04       1.0  T
   3   -518.6840742 -0.262417E+01  0.187E+00    0.01       1.0  T
   4   -518.8597877 -0.175713E+00  0.157E+00    0.03       1.0  T
   5   -518.9593633 -0.995755E-01  0.145E+00    0.00       1.0  T
   6   -519.3258026 -0.366439E+00  0.922E-01    0.01       1.0  T
   7   -519.4177698 -0.919672E-01  0.781E-01    0.00       1.0  T
   8   -519.3511706  0.665992E-01  0.886E-01    0.01       1.0  T
   9   -519.4527856 -0.101615E+00  0.714E-01    0.00       1.0  T
  10   -519.4868972 -0.341116E-01  0.619E-01    0.01       1.0  T
  11   -519.5442779 -0.573807E-01  0.549E-01    0.01       1.0  T
  12   -519.4210293  0.123249E+00  0.761E-01    0.01       1.0  T
  13   -519.5805630 -0.159534E+00  0.358E-01    0.00       1.0  T
  14   -519.4372877  0.143275E+00  0.705E-01    0.01       1.0  T
  15   -519.5734870 -0.136199E+00  0.377E-01    0.01       1.0  T
  16   -519.6166909 -0.432039E-01  0.127E-01    0.02       1.0  T
  17   -519.6101891  0.650178E-02  0.180E-01    0.01       1.0  T
  18   -519.6211383 -0.109492E-01  0.320E-02    0.02       1.0  T
  19   -519.6209109  0.227366E-03  0.419E-02    0.02       1.0  T
  20   -519.6214384 -0.527466E-03  0.143E-02    0.02       1.0  T
  21   -519.6214532 -0.147798E-04  0.125E-02    0.02       1.0  T
  22   -519.6214849 -0.317804E-04  0.686E-03    0.02       1.0  T
  23   -519.6214832  0.172615E-05  0.703E-03    0.02       1.0  T
  24   -519.6214980 -0.147592E-04  0.312E-03    0.02       1.8  T
  25   -519.6214980 -0.281987E-07  0.305E-03    0.02       1.9  T
  26   -519.6215010 -0.302606E-05  0.549E-04    0.02      10.3  T
  27   -519.6215008  0.231603E-06  0.935E-04    0.02       6.0  T
  28   -519.6215011 -0.300549E-06  0.212E-04    0.02      26.6  T
     SCC iter.                  ...        0 min,  9.720 sec
     gradient                   ...        0 min,  0.359 sec
 * total energy  :  -513.5896415 Eh     change       -0.9966663E-02 Eh
   gradient norm :     0.0480487 Eh/α   predicted    -0.8970525E-02 (  -9.99%)
   displ. norm   :     0.6785199 α      lambda       -0.1089172E-01
   maximum displ.:     0.1796018 α      in ANC's #20, #30, #4, ...

........................................................................
.............................. CYCLE    9 ..............................
........................................................................

 iter      E             dE          RMSdq      gap      omega  full diag
   1   -519.4706044 -0.519471E+03  0.751E-01    0.00       0.0  T
   2   -516.1076937  0.336291E+01  0.327E+00    0.03       1.0  T
   3   -518.7624532 -0.265476E+01  0.196E+00    0.06       1.0  T
   4   -518.8928348 -0.130382E+00  0.157E+00    0.01       1.0  T
   5   -518.9152588 -0.224239E-01  0.154E+00    0.03       1.0  T
   6   -519.1755807 -0.260322E+00  0.129E+00    0.02       1.0  T
   7   -519.2729130 -0.973323E-01  0.108E+00    0.04       1.0  T
   8   -519.3297425 -0.568295E-01  0.995E-01    0.01       1.0  T
   9   -519.2728841  0.568584E-01  0.107E+00    0.00       1.0  T
  10   -519.2704305  0.245358E-02  0.108E+00    0.01       1.0  T
  11   -519.5001441 -0.229714E+00  0.713E-01    0.01       1.0  T
  12   -519.4914459  0.869825E-02  0.684E-01    0.02       1.0  T
  13   -519.4625143  0.289316E-01  0.771E-01    0.02       1.0  T
  14   -519.5073814 -0.448671E-01  0.654E-01    0.01       1.0  T
  15   -519.6368834 -0.129502E+00  0.293E-01    0.00       1.0  T
  16   -519.6029740  0.339094E-01  0.406E-01    0.00       1.0  T
  17   -519.6469432 -0.439693E-01  0.181E-01    0.00       1.0  T
  18   -519.6484137 -0.147048E-02  0.173E-01    0.01       1.0  T
  19   -519.6580260 -0.961233E-02  0.480E-02    0.02       1.0  T
  20   -519.6578835  0.142553E-03  0.423E-02    0.02       1.0  T
  21   -519.6576858  0.197729E-03  0.482E-02    0.01       1.0  T
  22   -519.6583921 -0.706333E-03  0.162E-02    0.02       1.0  T
  23   -519.6584628 -0.706902E-04  0.619E-03    0.02       1.0  T
  24   -519.6584665 -0.375958E-05  0.529E-03    0.02       1.1  T
  25   -519.6584492  0.173572E-04  0.883E-03    0.02       1.0  T
  26   -519.6584695 -0.203011E-04  0.421E-03    0.02       1.3  T
  27   -519.6584749 -0.544906E-05  0.148E-03    0.02       3.8  T
  28   -519.6584754 -0.502676E-06  0.963E-04    0.02       5.9  T
  29   -519.6584756 -0.191230E-06  0.465E-04    0.02      12.1  T
     SCC iter.                  ...        0 min,  9.011 sec
     gradient                   ...        0 min,  0.379 sec
 * total energy  :  -513.5967726 Eh     change       -0.7131153E-02 Eh
   gradient norm :     0.0637492 Eh/α   predicted    -0.7953100E-02 (  11.53%)
   displ. norm   :     0.6396432 α      lambda       -0.1024182E-01
   maximum displ.:     0.2321313 α      in ANC's #11, #20, #4, ...

........................................................................
.............................. CYCLE   10 ..............................
........................................................................

 iter      E             dE          RMSdq      gap      omega  full diag
   1   -519.5343949 -0.519534E+03  0.692E-01    0.05       0.0  T
   2   -515.8305345  0.370386E+01  0.367E+00    0.10       1.0  T
   3   -518.4685812 -0.263805E+01  0.198E+00    0.08       1.0  T
   4   -518.9031491 -0.434568E+00  0.184E+00    0.01       1.0  T
   5   -519.0850276 -0.181879E+00  0.139E+00    0.02       1.0  T
   6   -519.2639358 -0.178908E+00  0.112E+00    0.01       1.0  T
   7   -519.2902600 -0.263242E-01  0.108E+00    0.03       1.0  T
   8   -519.6030780 -0.312818E+00  0.516E-01    0.01       1.0  T
   9   -519.2668008  0.336277E+00  0.111E+00    0.03       1.0  T
  10   -519.6125697 -0.345769E+00  0.467E-01    0.00       1.0  T
  11   -519.6334451 -0.208754E-01  0.380E-01    0.02       1.0  T
  12   -519.3565139  0.276931E+00  0.963E-01    0.01       1.0  T
  13   -519.5737222 -0.217208E+00  0.588E-01    0.00       1.0  T
  14   -519.6232000 -0.494778E-01  0.441E-01    0.01       1.0  T
  15   -519.6678226 -0.446227E-01  0.246E-01    0.01       1.0  T
  16   -519.6638058  0.401687E-02  0.270E-01    0.02       1.0  T
  17   -519.6854743 -0.216685E-01  0.865E-02    0.02       1.0  T
  18   -519.6840884  0.138587E-02  0.108E-01    0.01       1.0  T
  19   -519.6876880 -0.359957E-02  0.332E-02    0.02       1.0  T
  20   -519.6880139 -0.325911E-03  0.120E-02    0.02       1.0  T
  21   -519.6879617  0.521307E-04  0.169E-02    0.02       1.0  T
  22   -519.6880500 -0.882299E-04  0.541E-03    0.02       1.0  T
  23   -519.6880587 -0.869092E-05  0.227E-03    0.02       2.5  T
  24   -519.6880589 -0.276518E-06  0.189E-03    0.02       3.0  T
  25   -519.6880595 -0.590358E-06  0.135E-03    0.02       4.2  T
  26   -519.6880600 -0.515532E-06  0.603E-04    0.02       9.4  T
  27   -519.6880602 -0.108677E-06  0.227E-04    0.02      24.9  T
     SCC iter.                  ...        0 min,  9.355 sec
     gradient                   ...        0 min,  0.385 sec
 * total energy  :  -513.6037877 Eh     change       -0.7015113E-02 Eh
   gradient norm :     0.0361727 Eh/α   predicted    -0.7216103E-02 (   2.87%)
   displ. norm   :     0.6321384 α      lambda       -0.7419149E-02
   maximum displ.:     0.1958393 α      in ANC's #20, #4, #14, ...

........................................................................
.............................. CYCLE   11 ..............................
........................................................................

 iter      E             dE          RMSdq      gap      omega  full diag
   1   -519.4141475 -0.519414E+03  0.876E-01    0.01       0.0  T
   2   -516.7540256  0.266012E+01  0.312E+00    0.01       1.0  T
   3   -519.0123408 -0.225832E+01  0.150E+00    0.01       1.0  T
   4   -519.0174713 -0.513050E-02  0.146E+00    0.04       1.0  T
   5   -518.9074574  0.110014E+00  0.158E+00    0.01       1.0  T
   6   -519.2564534 -0.348996E+00  0.112E+00    0.03       1.0  T
   7   -518.9516091  0.304844E+00  0.146E+00    0.06       1.0  T
   8   -519.3574025 -0.405793E+00  0.949E-01    0.01       1.0  T
   9   -519.4224812 -0.650786E-01  0.849E-01    0.03       1.0  T
  10   -519.4577473 -0.352662E-01  0.797E-01    0.03       1.0  T
  11   -519.5694226 -0.111675E+00  0.564E-01    0.03       1.0  T
  12   -519.5061609  0.632617E-01  0.702E-01    0.01       1.0  T
  13   -519.3599523  0.146209E+00  0.111E+00    0.00       1.0  T
  14   -519.3759636 -0.160114E-01  0.103E+00    0.00       1.0  T
  15   -519.4551236 -0.791600E-01  0.837E-01    0.02       1.0  T
  16   -519.6197658 -0.164642E+00  0.410E-01    0.01       1.0  T
  17   -519.6685836 -0.488178E-01  0.179E-01    0.01       1.0  T
  18   -519.6753180 -0.673447E-02  0.110E-01    0.01       1.0  T
  19   -519.6788981 -0.358007E-02  0.497E-02    0.02       1.0  T
  20   -519.6755372  0.336092E-02  0.109E-01    0.01       1.0  T
  21   -519.6794913 -0.395406E-02  0.263E-02    0.02       1.0  T
  22   -519.6792738  0.217433E-03  0.354E-02    0.02       1.0  T
  23   -519.6790472  0.226598E-03  0.457E-02    0.01       1.0  T
  24   -519.6795231 -0.475829E-03  0.243E-02    0.02       1.0  T
  25   -519.6797238 -0.200792E-03  0.662E-03    0.02       1.0  T
  26   -519.6797140  0.983677E-05  0.788E-03    0.02       1.0  T
  27   -519.6797070  0.701668E-05  0.823E-03    0.02       1.0  T
  28   -519.6797263 -0.192732E-04  0.357E-03    0.02       1.6  T
  29   -519.6797266 -0.348436E-06  0.318E-03    0.02       1.8  T
  30   -519.6797288 -0.214345E-05  0.144E-03    0.02       3.9  T
  31   -519.6797288 -0.536837E-07  0.135E-03    0.02       4.2  T
  32   -519.6797290 -0.191276E-06  0.126E-03    0.02       4.5  T
  33   -519.6797290 -0.280694E-07  0.102E-03    0.02       5.6  T
  34   -519.6797293 -0.254703E-06  0.383E-04    0.02      14.7  T
  35   -519.6797293 -0.203084E-07  0.217E-04    0.02      26.0  T
     SCC iter.                  ...        0 min, 11.454 sec
     gradient                   ...        0 min,  0.390 sec
 * total energy  :  -513.6083540 Eh     change       -0.4566313E-02 Eh
   gradient norm :     0.0742585 Eh/α   predicted    -0.5191925E-02 (  13.70%)
   displ. norm   :     0.5767550 α      lambda       -0.9258779E-02
   maximum displ.:     0.1934703 α      in ANC's #20, #4, #33, ...

........................................................................
.............................. CYCLE   12 ..............................
........................................................................

 iter      E             dE          RMSdq      gap      omega  full diag
   1   -519.4387541 -0.519439E+03  0.896E-01    0.07       0.0  T
   2   -514.2675421  0.517121E+01  0.435E+00    0.05       1.0  T
   3   -518.7757827 -0.450824E+01  0.178E+00    0.04       1.0  T
   4   -518.7278968  0.478859E-01  0.197E+00    0.02       1.0  T
   5   -518.9229364 -0.195040E+00  0.156E+00    0.08       1.0  T
   6   -519.1870678 -0.264131E+00  0.131E+00    0.01       1.0  T
   7   -519.2814655 -0.943977E-01  0.116E+00    0.00       1.0  T
   8   -519.3289908 -0.475253E-01  0.108E+00    0.01       1.0  T
   9   -519.5319769 -0.202986E+00  0.756E-01    0.01       1.0  T
  10   -519.5974354 -0.654585E-01  0.577E-01    0.00       1.0  T
  11   -519.5986034 -0.116805E-02  0.563E-01    0.01       1.0  T
  12   -519.5952973  0.330612E-02  0.587E-01    0.00       1.0  T
  13   -519.6580825 -0.627852E-01  0.391E-01    0.00       1.0  T
  14   -519.5189681  0.139114E+00  0.749E-01    0.00       1.0  T
  15   -519.5471868 -0.282187E-01  0.687E-01    0.01       1.0  T
  16   -519.6432885 -0.961017E-01  0.484E-01    0.00       1.0  T
  17   -519.6575744 -0.142859E-01  0.393E-01    0.00       1.0  T
  18   -519.7008985 -0.433241E-01  0.154E-01    0.02       1.0  T
  19   -519.7084426 -0.754409E-02  0.437E-02    0.01       1.0  T
  20   -519.7084676 -0.250316E-04  0.450E-02    0.02       1.0  T
  21   -519.7085447 -0.770313E-04  0.421E-02    0.02       1.0  T
  22   -519.7089684 -0.423748E-03  0.194E-02    0.02       1.0  T
  23   -519.7090180 -0.495966E-04  0.151E-02    0.02       1.0  T
  24   -519.7090825 -0.645029E-04  0.583E-03    0.02       1.0  T
  25   -519.7090807  0.186273E-05  0.613E-03    0.02       1.0  T
  26   -519.7090883 -0.761661E-05  0.384E-03    0.02       1.5  T
  27   -519.7090904 -0.212441E-05  0.292E-03    0.02       1.9  T
  28   -519.7090930 -0.257238E-05  0.908E-04    0.02       6.2  T
  29   -519.7090932 -0.242043E-06  0.357E-04    0.02      15.8  T
  30   -519.7090933 -0.399248E-07  0.987E-05    0.02      57.2  T
     SCC iter.                  ...        0 min,  9.517 sec
     gradient                   ...        0 min,  0.354 sec
 * total energy  :  -513.6139589 Eh     change       -0.5604833E-02 Eh
   gradient norm :     0.0526101 Eh/α   predicted    -0.6169342E-02 (  10.07%)
   displ. norm   :     0.6329744 α      lambda       -0.9712140E-02
   maximum displ.:     0.1651443 α      in ANC's #20, #67, #4, ...

........................................................................
.............................. CYCLE   13 ..............................
........................................................................

 iter      E             dE          RMSdq      gap      omega  full diag
   1   -519.3962710 -0.519396E+03  0.926E-01    0.01       0.0  T
   2   -518.2973318  0.109894E+01  0.222E+00    0.06       1.0  T
   3   -518.8384621 -0.541130E+00  0.168E+00    0.16       1.0  T
   4   -518.9702355 -0.131773E+00  0.153E+00    0.04       1.0  T
   5   -518.9639206  0.631492E-02  0.152E+00    0.00       1.0  T
   6   -519.2009878 -0.237067E+00  0.124E+00    0.10       1.0  T
   7   -519.2755187 -0.745308E-01  0.115E+00    0.01       1.0  T
   8   -519.2884336 -0.129150E-01  0.113E+00    0.02       1.0  T
   9   -519.1401461  0.148288E+00  0.134E+00    0.03       1.0  T
  10   -519.3306673 -0.190521E+00  0.102E+00    0.04       1.0  T
  11   -519.5155543 -0.184887E+00  0.724E-01    0.00       1.0  T
  12   -519.4292556  0.862987E-01  0.871E-01    0.01       1.0  T
  13   -519.4777947 -0.485391E-01  0.812E-01    0.02       1.0  T
  14   -519.6015975 -0.123803E+00  0.500E-01    0.01       1.0  T
  15   -519.4422270  0.159370E+00  0.984E-01    0.00       1.0  T
  16   -519.4842115 -0.419845E-01  0.790E-01    0.02       1.0  T
  17   -519.5500293 -0.658177E-01  0.613E-01    0.00       1.0  T
  18   -519.6378322 -0.878030E-01  0.385E-01    0.01       1.0  T
  19   -519.6395691 -0.173687E-02  0.361E-01    0.03       1.0  T
  20   -519.6496445 -0.100754E-01  0.313E-01    0.03       1.0  T
  21   -519.6663301 -0.166856E-01  0.216E-01    0.03       1.0  T
  22   -519.6794878 -0.131576E-01  0.920E-02    0.02       1.0  T
  23   -519.6815661 -0.207836E-02  0.321E-02    0.01       1.0  T
  24   -519.6816250 -0.589024E-04  0.277E-02    0.02       1.0  T
  25   -519.6818447 -0.219701E-03  0.157E-02    0.02       1.0  T
  26   -519.6818141  0.306326E-04  0.159E-02    0.01       1.0  T
  27   -519.6818918 -0.776837E-04  0.521E-03    0.01       1.1  T
  28   -519.6818838  0.794069E-05  0.721E-03    0.02       1.0  T
  29   -519.6818965 -0.127136E-04  0.348E-03    0.02       1.6  T
  30   -519.6818995 -0.297904E-05  0.172E-03    0.01       3.3  T
  31   -519.6819000 -0.509280E-06  0.136E-03    0.01       4.1  T
  32   -519.6819003 -0.266909E-06  0.873E-04    0.01       6.5  T
  33   -519.6819005 -0.207424E-06  0.474E-04    0.01      11.9  T
     SCC iter.                  ...        0 min,  9.332 sec
     gradient                   ...        0 min,  0.338 sec
 * total energy  :  -513.6121371 Eh     change        0.1821745E-02 Eh
   gradient norm :     0.1464345 Eh/α   predicted    -0.6801693E-02 (-473.36%)
   displ. norm   :     0.2938973 α      lambda       -0.1287347E-01
   maximum displ.:     0.0912622 α      in ANC's #14, #20, #30, ...

........................................................................
.............................. CYCLE   14 ..............................
........................................................................

 iter      E             dE          RMSdq      gap      omega  full diag
   1   -519.4816967 -0.519482E+03  0.751E-01    0.00       0.0  T
   2   -518.3649865  0.111671E+01  0.195E+00    0.02       1.0  T
   3   -519.1087347 -0.743748E+00  0.136E+00    0.02       1.0  T
   4   -519.0607923  0.479423E-01  0.139E+00    0.04       1.0  T
   5   -519.1186478 -0.578555E-01  0.129E+00    0.03       1.0  T
   6   -519.3058449 -0.187197E+00  0.105E+00    0.05       1.0  T
   7   -519.0929160  0.212929E+00  0.130E+00    0.02       1.0  T
   8   -519.1906424 -0.977264E-01  0.118E+00    0.06       1.0  T
   9   -519.6278043 -0.437162E+00  0.360E-01    0.00       1.0  T
  10   -519.6036639  0.241403E-01  0.438E-01    0.01       1.0  T
  11   -519.6312367 -0.275727E-01  0.357E-01    0.00       1.0  T
  12   -519.5095375  0.121699E+00  0.678E-01    0.03       1.0  T
  13   -519.6397720 -0.130234E+00  0.311E-01    0.01       1.0  T
  14   -519.6512596 -0.114876E-01  0.276E-01    0.00       1.0  T
  15   -519.6221968  0.290627E-01  0.390E-01    0.00       1.0  T
  16   -519.6320697 -0.987291E-02  0.361E-01    0.03       1.0  T
  17   -519.5686360  0.634337E-01  0.539E-01    0.00       1.0  T
  18   -519.6552003 -0.865643E-01  0.214E-01    0.01       1.0  T
  19   -519.6657758 -0.105755E-01  0.116E-01    0.02       1.0  T
  20   -519.6683991 -0.262330E-02  0.759E-02    0.02       1.0  T
  21   -519.6700617 -0.166253E-02  0.293E-02    0.01       1.0  T
  22   -519.6702284 -0.166690E-03  0.203E-02    0.01       1.0  T
  23   -519.6703339 -0.105550E-03  0.823E-03    0.01       1.0  T
  24   -519.6703554 -0.215080E-04  0.276E-03    0.01       2.0  T
  25   -519.6703501  0.532928E-05  0.477E-03    0.01       1.2  T
  26   -519.6703550 -0.487257E-05  0.291E-03    0.01       1.9  T
  27   -519.6703578 -0.282548E-05  0.869E-04    0.01       6.5  T
  28   -519.6703578 -0.567453E-07  0.691E-04    0.01       8.2  T
  29   -519.6703579 -0.970839E-07  0.467E-04    0.01      12.1  T
     SCC iter.                  ...        0 min,  9.531 sec
     gradient                   ...        0 min,  0.371 sec
 * total energy  :  -513.6184937 Eh     change       -0.6356534E-02 Eh
   gradient norm :     0.0583516 Eh/α   predicted    -0.6992716E-02 (  10.01%)
   displ. norm   :     0.4116508 α      lambda       -0.1039923E-01
   maximum displ.:     0.1750803 α      in ANC's #43, #40, #11, ...

........................................................................
.............................. CYCLE   15 ..............................
........................................................................

 iter      E             dE          RMSdq      gap      omega  full diag
   1   -519.3820533 -0.519382E+03  0.105E+00    0.07       0.0  T
   2   -513.9403699  0.544168E+01  0.439E+00    0.01       1.0  T
   3   -518.6769725 -0.473660E+01  0.185E+00    0.07       1.0  T
   4   -518.9448437 -0.267871E+00  0.177E+00    0.11       1.0  T
   5   -518.9479709 -0.312723E-02  0.155E+00    0.01       1.0  T
   6   -519.3264983 -0.378527E+00  0.106E+00    0.03       1.0  T
   7   -519.4298662 -0.103368E+00  0.910E-01    0.01       1.0  T
   8   -519.4694436 -0.395774E-01  0.929E-01    0.01       1.0  T
   9   -519.6044296 -0.134986E+00  0.642E-01    0.01       1.0  T
  10   -519.4588684  0.145561E+00  0.959E-01    0.01       1.0  T
  11   -519.3972531  0.616153E-01  0.103E+00    0.00       1.0  T
  12   -519.4430339 -0.457809E-01  0.959E-01    0.01       1.0  T
  13   -519.6382662 -0.195232E+00  0.558E-01    0.00       1.0  T
  14   -519.5934139  0.448523E-01  0.641E-01    0.01       1.0  T
  15   -519.6480939 -0.546799E-01  0.488E-01    0.01       1.0  T
  16   -519.6638967 -0.158029E-01  0.452E-01    0.01       1.0  T
  17   -519.6941889 -0.302922E-01  0.319E-01    0.01       1.0  T
  18   -519.7178668 -0.236779E-01  0.187E-01    0.04       1.0  T
  19   -519.7108561  0.701072E-02  0.234E-01    0.00       1.0  T
  20   -519.7287385 -0.178824E-01  0.514E-02    0.03       1.0  T
  21   -519.7287151  0.233792E-04  0.513E-02    0.02       1.0  T
  22   -519.7291893 -0.474164E-03  0.356E-02    0.02       1.0  T
  23   -519.7294792 -0.289924E-03  0.169E-02    0.02       1.0  T
  24   -519.7295339 -0.546528E-04  0.109E-02    0.02       1.0  T
  25   -519.7295479 -0.140488E-04  0.801E-03    0.02       1.0  T
  26   -519.7295490 -0.112370E-05  0.791E-03    0.02       1.0  T
  27   -519.7295673 -0.182101E-04  0.267E-03    0.02       2.1  T
  28   -519.7295678 -0.575047E-06  0.222E-03    0.02       2.5  T
  29   -519.7295692 -0.134606E-05  0.896E-04    0.02       6.3  T
  30   -519.7295694 -0.218798E-06  0.402E-04    0.02      14.0  T
  31   -519.7295694 -0.451256E-07  0.127E-04    0.02      44.6  T
     SCC iter.                  ...        0 min,  9.090 sec
     gradient                   ...        0 min,  0.363 sec
 * total energy  :  -513.6076333 Eh     change        0.1086040E-01 Eh
   gradient norm :     0.2098327 Eh/α   predicted    -0.6080746E-02 (-155.99%)
   displ. norm   :     0.2606815 α      lambda       -0.2551810E-01
   maximum displ.:     0.1243537 α      in ANC's #40, #43, #150, ...

........................................................................
.............................. CYCLE   16 ..............................
........................................................................

 iter      E             dE          RMSdq      gap      omega  full diag
   1   -519.1170688 -0.519117E+03  0.137E+00    0.00       0.0  T
   2   -518.3366431  0.780426E+00  0.211E+00    0.09       1.0  T
   3   -519.0468604 -0.710217E+00  0.152E+00    0.78       1.0  T
   4   -519.1909459 -0.144085E+00  0.129E+00    0.04       1.0  T
   5   -519.3701908 -0.179245E+00  0.105E+00    0.03       1.0  T
   6   -519.3176835  0.525073E-01  0.110E+00    0.02       1.0  T
   7   -519.3484462 -0.307628E-01  0.103E+00    0.06       1.0  T
   8   -519.5619486 -0.213502E+00  0.656E-01    0.00       1.0  T
   9   -519.5637105 -0.176189E-02  0.658E-01    0.02       1.0  T
  10   -519.5616377  0.207273E-02  0.671E-01    0.03       1.0  T
  11   -519.5417749  0.198628E-01  0.694E-01    0.02       1.0  T
  12   -519.2479976  0.293777E+00  0.115E+00    0.01       1.0  T
  13   -519.1984615  0.495360E-01  0.122E+00    0.02       1.0  T
  14   -519.2541989 -0.557374E-01  0.122E+00    0.01       1.0  T
  15   -519.2501020  0.409690E-02  0.118E+00    0.02       1.0  T
  16   -519.5249791 -0.274877E+00  0.731E-01    0.01       1.0  T
  17   -519.5386179 -0.136388E-01  0.687E-01    0.03       1.0  T
  18   -519.6020256 -0.634077E-01  0.529E-01    0.01       1.0  T
  19   -519.6107609 -0.873530E-02  0.503E-01    0.00       1.0  T
  20   -519.6708491 -0.600882E-01  0.286E-01    0.01       1.0  T
  21   -519.6986151 -0.277660E-01  0.490E-02    0.02       1.0  T
  22   -519.6950667  0.354840E-02  0.111E-01    0.02       1.0  T
  23   -519.6972996 -0.223286E-02  0.760E-02    0.01       1.0  T
  24   -519.6984820 -0.118249E-02  0.517E-02    0.01       1.0  T
  25   -519.6984365  0.455292E-04  0.516E-02    0.02       1.0  T
  26   -519.6993310 -0.894464E-03  0.111E-02    0.02       1.0  T
  27   -519.6993493 -0.183630E-04  0.847E-03    0.02       1.0  T
  28   -519.6993688 -0.194451E-04  0.361E-03    0.02       1.6  T
  29   -519.6993655  0.331423E-05  0.473E-03    0.02       1.2  T
  30   -519.6993715 -0.603680E-05  0.221E-03    0.02       2.6  T
  31   -519.6993730 -0.149754E-05  0.781E-04    0.02       7.2  T
  32   -519.6993731 -0.121062E-06  0.519E-04    0.02      10.9  T
  33   -519.6993732 -0.762119E-07  0.240E-04    0.02      23.5  T
     SCC iter.                  ...        0 min, 10.026 sec
     gradient                   ...        0 min,  0.371 sec
 * total energy  :  -513.6210922 Eh     change       -0.1345894E-01 Eh
   gradient norm :     0.0341628 Eh/α   predicted    -0.1362604E-01 (   1.24%)
   displ. norm   :     0.5311206 α      lambda       -0.6183724E-02
   maximum displ.:     0.2032748 α      in ANC's #14, #15, #30, ...

........................................................................
.............................. CYCLE   17 ..............................
........................................................................

 iter      E             dE          RMSdq      gap      omega  full diag
   1   -519.4839471 -0.519484E+03  0.727E-01    0.00       0.0  T
   2   -517.7241631  0.175978E+01  0.234E+00    0.01       1.0  T
   3   -518.9199957 -0.119583E+01  0.154E+00    0.10       1.0  T
   4   -518.7995294  0.120466E+00  0.167E+00    0.11       1.0  T
   5   -519.2563646 -0.456835E+00  0.112E+00    0.06       1.0  T
   6   -519.1801159  0.762487E-01  0.120E+00    0.02       1.0  T
   7   -519.3861078 -0.205992E+00  0.922E-01    0.01       1.0  T
   8   -519.3838773  0.223052E-02  0.884E-01    0.03       1.0  T
   9   -519.4947859 -0.110909E+00  0.705E-01    0.02       1.0  T
  10   -519.4662019  0.285840E-01  0.753E-01    0.01       1.0  T
  11   -519.5787557 -0.112554E+00  0.506E-01    0.01       1.0  T
  12   -519.4917692  0.869865E-01  0.722E-01    0.01       1.0  T
  13   -519.5357960 -0.440268E-01  0.606E-01    0.00       1.0  T
  14   -519.5159329  0.198631E-01  0.643E-01    0.02       1.0  T
  15   -519.6004209 -0.844880E-01  0.419E-01    0.01       1.0  T
  16   -519.4942034  0.106217E+00  0.717E-01    0.01       1.0  T
  17   -519.6225891 -0.128386E+00  0.345E-01    0.02       1.0  T
  18   -519.6379956 -0.154065E-01  0.274E-01    0.03       1.0  T
  19   -519.6491265 -0.111309E-01  0.196E-01    0.00       1.0  T
  20   -519.6617489 -0.126224E-01  0.496E-02    0.01       1.0  T
  21   -519.6616146  0.134352E-03  0.529E-02    0.01       1.0  T
  22   -519.6625417 -0.927121E-03  0.886E-03    0.01       1.0  T
  23   -519.6623414  0.200276E-03  0.257E-02    0.01       1.0  T
  24   -519.6625350 -0.193566E-03  0.102E-02    0.01       1.0  T
  25   -519.6625606 -0.255847E-04  0.478E-03    0.01       1.2  T
  26   -519.6625636 -0.304971E-05  0.383E-03    0.01       1.5  T
  27   -519.6625663 -0.266356E-05  0.260E-03    0.01       2.2  T
  28   -519.6625681 -0.187237E-05  0.114E-03    0.01       4.9  T
  29   -519.6625678  0.313440E-06  0.145E-03    0.01       3.9  T
  30   -519.6625685 -0.667315E-06  0.447E-04    0.01      12.6  T
  31   -519.6625685 -0.216132E-07  0.384E-04    0.01      14.7  T
     SCC iter.                  ...        0 min,  9.994 sec
     gradient                   ...        0 min,  0.401 sec
 * total energy  :  -513.6143777 Eh     change        0.6714500E-02 Eh
   gradient norm :     0.1371546 Eh/α   predicted    -0.3964035E-02 (-159.04%)
   displ. norm   :     0.2530907 α      lambda       -0.1714739E-01
   maximum displ.:     0.1224925 α      in ANC's #40, #15, #30, ...

........................................................................
.............................. CYCLE   18 ..............................
........................................................................

 iter      E             dE          RMSdq      gap      omega  full diag
   1   -519.4022881 -0.519402E+03  0.906E-01    0.00       0.0  T
   2   -516.0550576  0.334723E+01  0.326E+00    0.04       1.0  T
   3   -518.9792109 -0.292415E+01  0.153E+00    0.04       1.0  T
   4   -518.7748251  0.204386E+00  0.174E+00    0.04       1.0  T
   5   -518.9912453 -0.216420E+00  0.149E+00    0.05       1.0  T
   6   -519.3735234 -0.382278E+00  0.102E+00    0.00       1.0  T
   7   -519.4923301 -0.118807E+00  0.749E-01    0.00       1.0  T
   8   -519.4975534 -0.522326E-02  0.734E-01    0.02       1.0  T
   9   -519.5382273 -0.406739E-01  0.720E-01    0.00       1.0  T
  10   -519.4828033  0.554240E-01  0.777E-01    0.01       1.0  T
  11   -519.6520484 -0.169245E+00  0.304E-01    0.00       1.0  T
  12   -519.5229944  0.129054E+00  0.700E-01    0.00       1.0  T
  13   -519.6401846 -0.117190E+00  0.427E-01    0.01       1.0  T
  14   -519.5240305  0.116154E+00  0.698E-01    0.00       1.0  T
  15   -519.5625357 -0.385051E-01  0.601E-01    0.00       1.0  T
  16   -519.6636890 -0.101153E+00  0.242E-01    0.01       1.0  T
  17   -519.6407218  0.229672E-01  0.382E-01    0.01       1.0  T
  18   -519.6704305 -0.297087E-01  0.186E-01    0.01       1.0  T
  19   -519.6824038 -0.119733E-01  0.553E-02    0.02       1.0  T
  20   -519.6826889 -0.285125E-03  0.409E-02    0.02       1.0  T
  21   -519.6822511  0.437743E-03  0.521E-02    0.02       1.0  T
  22   -519.6831501 -0.898945E-03  0.175E-02    0.02       1.0  T
  23   -519.6832285 -0.783761E-04  0.955E-03    0.02       1.0  T
  24   -519.6831959  0.325461E-04  0.135E-02    0.02       1.0  T
  25   -519.6832493 -0.533372E-04  0.613E-03    0.02       1.0  T
  26   -519.6832580 -0.873844E-05  0.288E-03    0.02       2.0  T
  27   -519.6832599 -0.189303E-05  0.151E-03    0.02       3.7  T
  28   -519.6832600 -0.692175E-07  0.139E-03    0.02       4.1  T
  29   -519.6832606 -0.655123E-06  0.239E-04    0.02      23.6  T
  30   -519.6832606  0.210443E-07  0.305E-04    0.02      18.5  T
     SCC iter.                  ...        0 min,  9.176 sec
     gradient                   ...        0 min,  0.367 sec
 * total energy  :  -513.6236565 Eh     change       -0.9278770E-02 Eh
   gradient norm :     0.0358323 Eh/α   predicted    -0.9122866E-02 (  -1.68%)
   displ. norm   :     0.3352402 α      lambda       -0.4628538E-02
   maximum displ.:     0.1419531 α      in ANC's #30, #43, #45, ...

........................................................................
.............................. CYCLE   19 ..............................
........................................................................

 iter      E             dE          RMSdq      gap      omega  full diag
   1   -519.3312587 -0.519331E+03  0.108E+00    0.00       0.0  T
   2   -517.3261479  0.200511E+01  0.263E+00    0.02       1.0  T
   3   -518.8911126 -0.156496E+01  0.165E+00    0.08       1.0  T
   4   -518.9996156 -0.108503E+00  0.155E+00    0.09       1.0  T
   5   -518.9444071  0.552085E-01  0.154E+00    0.10       1.0  T
   6   -519.3302581 -0.385851E+00  0.112E+00    0.01       1.0  T
   7   -519.2892361  0.410220E-01  0.116E+00    0.02       1.0  T
   8   -519.1860590  0.103177E+00  0.127E+00    0.08       1.0  T
   9   -519.3959536 -0.209895E+00  0.972E-01    0.01       1.0  T
  10   -519.4805224 -0.845688E-01  0.838E-01    0.00       1.0  T
  11   -519.5496470 -0.691246E-01  0.709E-01    0.00       1.0  T
  12   -519.5151228  0.345242E-01  0.768E-01    0.01       1.0  T
  13   -519.5596270 -0.445042E-01  0.726E-01    0.02       1.0  T
  14   -519.5346633  0.249637E-01  0.733E-01    0.01       1.0  T
  15   -519.5615632 -0.268999E-01  0.663E-01    0.01       1.0  T
  16   -519.6227951 -0.612319E-01  0.510E-01    0.01       1.0  T
  17   -519.6124987  0.102965E-01  0.546E-01    0.00       1.0  T
  18   -519.6495917 -0.370930E-01  0.437E-01    0.00       1.0  T
  19   -519.6521740 -0.258237E-02  0.425E-01    0.01       1.0  T
  20   -519.6957061 -0.435320E-01  0.236E-01    0.02       1.0  T
  21   -519.6873968  0.830921E-02  0.283E-01    0.01       1.0  T
  22   -519.7057225 -0.183256E-01  0.164E-01    0.01       1.0  T
  23   -519.7103814 -0.465892E-02  0.117E-01    0.01       1.0  T
  24   -519.7140495 -0.366816E-02  0.582E-02    0.01       1.0  T
  25   -519.7141476 -0.980788E-04  0.541E-02    0.01       1.0  T
  26   -519.7145386 -0.391030E-03  0.413E-02    0.01       1.0  T
  27   -519.7150582 -0.519530E-03  0.152E-02    0.01       1.0  T
  28   -519.7149714  0.867961E-04  0.214E-02    0.01       1.0  T
  29   -519.7150999 -0.128520E-03  0.869E-03    0.01       1.0  T
  30   -519.7151246 -0.247340E-04  0.233E-03    0.01       2.4  T
  31   -519.7151242  0.469377E-06  0.241E-03    0.01       2.3  T
  32   -519.7151257 -0.151565E-05  0.124E-03    0.01       4.6  T
  33   -519.7151258 -0.128472E-06  0.113E-03    0.01       5.0  T
  34   -519.7151261 -0.310076E-06  0.508E-04    0.01      11.1  T
  35   -519.7151262 -0.379675E-07  0.382E-04    0.01      14.8  T
     SCC iter.                  ...        0 min, 10.970 sec
     gradient                   ...        0 min,  0.338 sec
 * total energy  :  -513.6177859 Eh     change        0.5870543E-02 Eh
   gradient norm :     0.1318872 Eh/α   predicted    -0.2574338E-02 (-143.85%)
   displ. norm   :     0.2501323 α      lambda       -0.1459857E-01
   maximum displ.:     0.1118828 α      in ANC's #43, #30, #40, ...

........................................................................
.............................. CYCLE   20 ..............................
........................................................................

 iter      E             dE          RMSdq      gap      omega  full diag
   1   -519.4113739 -0.519411E+03  0.941E-01    0.00       0.0  T
   2   -516.3552576  0.305612E+01  0.314E+00    0.04       1.0  T
   3   -518.9551393 -0.259988E+01  0.151E+00    0.04       1.0  T
   4   -518.9671123 -0.119730E-01  0.151E+00    0.03       1.0  T
   5   -519.0894542 -0.122342E+00  0.138E+00    0.11       1.0  T
   6   -518.9033003  0.186154E+00  0.171E+00    0.04       1.0  T
   7   -519.2745638 -0.371263E+00  0.118E+00    0.06       1.0  T
   8   -519.1942992  0.802645E-01  0.126E+00    0.00       1.0  T
   9   -519.5096459 -0.315347E+00  0.771E-01    0.00       1.0  T
  10   -519.6275554 -0.117909E+00  0.480E-01    0.03       1.0  T
  11   -519.5123286  0.115227E+00  0.750E-01    0.01       1.0  T
  12   -519.2934855  0.218843E+00  0.110E+00    0.03       1.0  T
  13   -519.5724817 -0.278996E+00  0.666E-01    0.00       1.0  T
  14   -519.5156547  0.568270E-01  0.756E-01    0.00       1.0  T
  15   -519.6197340 -0.104079E+00  0.506E-01    0.00       1.0  T
  16   -519.5756544  0.440796E-01  0.633E-01    0.01       1.0  T
  17   -519.6818439 -0.106190E+00  0.282E-01    0.00       1.0  T
  18   -519.6798867  0.195729E-02  0.291E-01    0.00       1.0  T
  19   -519.7049383 -0.250517E-01  0.123E-01    0.01       1.0  T
  20   -519.7080790 -0.314065E-02  0.779E-02    0.01       1.0  T
  21   -519.7097788 -0.169982E-02  0.359E-02    0.02       1.0  T
  22   -519.7078793  0.189948E-02  0.799E-02    0.01       1.0  T
  23   -519.7098912 -0.201189E-02  0.308E-02    0.01       1.0  T
  24   -519.7099249 -0.336745E-04  0.293E-02    0.02       1.0  T
  25   -519.7101776 -0.252742E-03  0.125E-02    0.02       1.0  T
  26   -519.7102085 -0.308903E-04  0.781E-03    0.02       1.0  T
  27   -519.7102242 -0.156965E-04  0.418E-03    0.02       1.4  T
  28   -519.7102264 -0.221439E-05  0.333E-03    0.02       1.7  T
  29   -519.7102285 -0.211768E-05  0.211E-03    0.02       2.7  T
  30   -519.7102292 -0.604554E-06  0.153E-03    0.02       3.7  T
  31   -519.7102297 -0.582640E-06  0.866E-04    0.02       6.5  T
  32   -519.7102300 -0.225882E-06  0.365E-04    0.02      15.5  T
     SCC iter.                  ...        0 min,  9.740 sec
     gradient                   ...        0 min,  0.347 sec
 * total energy  :  -513.6255891 Eh     change       -0.7803132E-02 Eh
   gradient norm :     0.0266179 Eh/α   predicted    -0.7755969E-02 (  -0.60%)
   displ. norm   :     0.5258455 α      lambda       -0.4123555E-02
   maximum displ.:     0.1991140 α      in ANC's #20, #31, #34, ...
 * RMSD in coord.:     0.3864119 α      energy gain  -0.9349420E+00 Eh

generating ANC from model Hessian ...
Using Lindh-Hessian (1995)
 Shifting diagonal of input Hessian by    6.3659455026758415E-003
 Lowest  eigenvalues of input Hessian
    0.000000    0.000000    0.000000    0.000000    0.000000    0.000000
    0.010000    0.011523    0.011835    0.011993    0.012275    0.013712
    0.013725    0.013816    0.014089    0.014540    0.014665    0.014775
 Highest eigenvalues
    2.707897    2.716047    2.724456    2.726058    2.758521    3.045935


........................................................................
.............................. CYCLE   21 ..............................
........................................................................

 iter      E             dE          RMSdq      gap      omega  full diag
   1   -519.4078398 -0.519408E+03  0.884E-01    0.00       0.0  T
   2   -518.3896221  0.101822E+01  0.200E+00    0.02       1.0  T
   3   -519.0778448 -0.688223E+00  0.142E+00    0.17       1.0  T
   4   -518.8288508  0.248994E+00  0.164E+00    0.01       1.0  T
   5   -519.0101632 -0.181312E+00  0.145E+00    0.03       1.0  T
   6   -519.0764690 -0.663058E-01  0.136E+00    0.06       1.0  T
   7   -519.2394397 -0.162971E+00  0.116E+00    0.03       1.0  T
   8   -519.2604056 -0.209659E-01  0.112E+00    0.03       1.0  T
   9   -519.1505883  0.109817E+00  0.159E+00    0.02       1.0  T
  10   -519.4539387 -0.303350E+00  0.100E+00    0.00       1.0  T
  11   -519.6133132 -0.159375E+00  0.421E-01    0.00       1.0  T
  12   -519.5651646  0.481486E-01  0.528E-01    0.01       1.0  T
  13   -519.6142180 -0.490534E-01  0.382E-01    0.00       1.0  T
  14   -518.9902320  0.623986E+00  0.169E+00    0.02       1.0  T
  15   -519.3398764 -0.349644E+00  0.987E-01    0.01       1.0  T
  16   -519.6369326 -0.297056E+00  0.286E-01    0.02       1.0  T
  17   -519.5650179  0.719147E-01  0.538E-01    0.03       1.0  T
  18   -519.6330192 -0.680013E-01  0.343E-01    0.02       1.0  T
  19   -519.6444167 -0.113975E-01  0.251E-01    0.03       1.0  T
  20   -519.6551627 -0.107460E-01  0.163E-01    0.02       1.0  T
  21   -519.6629260 -0.776332E-02  0.463E-02    0.01       1.0  T
  22   -519.6587837  0.414228E-02  0.119E-01    0.02       1.0  T
  23   -519.6632266 -0.444283E-02  0.343E-02    0.01       1.0  T
  24   -519.6632497 -0.230981E-04  0.313E-02    0.01       1.0  T
  25   -519.6634683 -0.218676E-03  0.165E-02    0.01       1.0  T
  26   -519.6634603  0.807163E-05  0.143E-02    0.01       1.0  T
  27   -519.6634361  0.241401E-04  0.155E-02    0.01       1.0  T
  28   -519.6634641 -0.279450E-04  0.107E-02    0.01       1.0  T
  29   -519.6634925 -0.284163E-04  0.339E-03    0.01       1.7  T
  30   -519.6634950 -0.254001E-05  0.140E-03    0.01       4.0  T
  31   -519.6634953 -0.282620E-06  0.106E-03    0.01       5.3  T
  32   -519.6634955 -0.192893E-06  0.736E-04    0.01       7.7  T
  33   -519.6634954  0.110010E-06  0.915E-04    0.01       6.2  T
     SCC iter.                  ...        0 min, 10.376 sec
     gradient                   ...        0 min,  0.397 sec
 * total energy  :  -513.6222985 Eh     change        0.3290516E-02 Eh
   gradient norm :     0.0954040 Eh/α   predicted     0.0000000E+00 (-100.00%)
   displ. norm   :     0.2448982 α      lambda       -0.9534468E-02
   maximum displ.:     0.1371830 α      in ANC's #8, #27, #12, ...

........................................................................
.............................. CYCLE   22 ..............................
........................................................................

 iter      E             dE          RMSdq      gap      omega  full diag
   1   -519.5408125 -0.519541E+03  0.698E-01    0.07       0.0  T
   2   -515.9357135  0.360510E+01  0.358E+00    0.09       1.0  T
   3   -518.6445103 -0.270880E+01  0.187E+00    0.13       1.0  T
   4   -518.9291337 -0.284623E+00  0.176E+00    0.07       1.0  T
   5   -519.1377461 -0.208612E+00  0.134E+00    0.03       1.0  T
   6   -519.0121880  0.125558E+00  0.166E+00    0.01       1.0  T
   7   -519.3330270 -0.320839E+00  0.105E+00    0.01       1.0  T
   8   -519.4582549 -0.125228E+00  0.859E-01    0.00       1.0  T
   9   -519.4591338 -0.878910E-03  0.870E-01    0.01       1.0  T
  10   -519.6096092 -0.150475E+00  0.526E-01    0.00       1.0  T
  11   -519.6706979 -0.610887E-01  0.322E-01    0.00       1.0  T
  12   -519.4890083  0.181690E+00  0.783E-01    0.01       1.0  T
  13   -519.6785495 -0.189541E+00  0.264E-01    0.03       1.0  T
  14   -519.6524258  0.261236E-01  0.394E-01    0.03       1.0  T
  15   -519.6577569 -0.533101E-02  0.353E-01    0.04       1.0  T
  16   -519.6806787 -0.229218E-01  0.247E-01    0.00       1.0  T
  17   -519.7011214 -0.204428E-01  0.401E-02    0.01       1.0  T
  18   -519.7013948 -0.273363E-03  0.280E-02    0.02       1.0  T
  19   -519.7015634 -0.168650E-03  0.160E-02    0.01       1.0  T
  20   -519.7016463 -0.828803E-04  0.567E-03    0.01       1.0  T
  21   -519.7016479 -0.159304E-05  0.461E-03    0.02       1.2  T
  22   -519.7016485 -0.549391E-06  0.420E-03    0.02       1.3  T
  23   -519.7016512 -0.270348E-05  0.318E-03    0.02       1.8  T
  24   -519.7016527 -0.153727E-05  0.241E-03    0.01       2.3  T
  25   -519.7016543 -0.159372E-05  0.968E-04    0.02       5.8  T
  26   -519.7016546 -0.275319E-06  0.362E-04    0.02      15.6  T
  27   -519.7016546 -0.280779E-07  0.203E-04    0.02      27.9  T
     SCC iter.                  ...        0 min,  8.118 sec
     gradient                   ...        0 min,  0.390 sec
 * total energy  :  -513.6286139 Eh     change       -0.6315403E-02 Eh
   gradient norm :     0.0261799 Eh/α   predicted    -0.5054964E-02 ( -19.96%)
   displ. norm   :     0.3468636 α      lambda       -0.2919081E-02
   maximum displ.:     0.2108834 α      in ANC's #8, #14, #27, ...

........................................................................
.............................. CYCLE   23 ..............................
........................................................................

 iter      E             dE          RMSdq      gap      omega  full diag
   1   -519.6663682 -0.519666E+03  0.381E-01    0.03       0.0  T
   2   -517.9080035  0.175836E+01  0.234E+00    0.01       1.0  T
   3   -518.9590946 -0.105109E+01  0.175E+00    0.04       1.0  T
   4   -519.4397223 -0.480628E+00  0.956E-01    0.01       1.0  T
   5   -519.3205655  0.119157E+00  0.107E+00    0.04       1.0  T
   6   -519.5431100 -0.222545E+00  0.731E-01    0.02       1.0  T
   7   -519.3351318  0.207978E+00  0.104E+00    0.00       1.0  T
   8   -519.6614458 -0.326314E+00  0.413E-01    0.00       1.0  T
   9   -519.6634895 -0.204367E-02  0.413E-01    0.00       1.0  T
  10   -519.6764483 -0.129588E-01  0.336E-01    0.01       1.0  T
  11   -519.5633025  0.113146E+00  0.672E-01    0.01       1.0  T
  12   -519.6614408 -0.981383E-01  0.396E-01    0.00       1.0  T
  13   -519.6627554 -0.131460E-02  0.391E-01    0.01       1.0  T
  14   -519.6777095 -0.149541E-01  0.325E-01    0.01       1.0  T
  15   -519.6923228 -0.146133E-01  0.250E-01    0.02       1.0  T
  16   -519.6982948 -0.597203E-02  0.222E-01    0.00       1.0  T
  17   -519.7135481 -0.152533E-01  0.303E-02    0.02       1.0  T
  18   -519.7137756 -0.227553E-03  0.135E-02    0.02       1.0  T
  19   -519.7137958 -0.201908E-04  0.107E-02    0.01       1.0  T
  20   -519.7138328 -0.369687E-04  0.236E-03    0.02       2.4  T
  21   -519.7138330 -0.160727E-06  0.222E-03    0.02       2.5  T
  22   -519.7138338 -0.866891E-06  0.140E-03    0.02       4.0  T
  23   -519.7138344 -0.608409E-06  0.474E-04    0.02      11.9  T
  24   -519.7138344  0.329781E-07  0.512E-04    0.02      11.0  T
     SCC iter.                  ...        0 min,  7.574 sec
     gradient                   ...        0 min,  0.365 sec
 * total energy  :  -513.6307697 Eh     change       -0.2155754E-02 Eh
   gradient norm :     0.0123391 Eh/α   predicted    -0.1636861E-02 ( -24.07%)
   displ. norm   :     0.5231925 α      lambda       -0.2474725E-02
   maximum displ.:     0.3036425 α      in ANC's #8, #14, #27, ...

........................................................................
.............................. CYCLE   24 ..............................
[...]
    20   6 C       23   6 C                                       1.4258888
    23   6 C       24   6 C                                       1.4206192
    24   6 C       25   6 C                                       1.3668444
    23   6 C       26   6 C                                       1.4237967
    26   6 C       27   6 C                                       1.4000810
    20   6 C       29   1 H                                       1.0825425
    21   6 C       30   1 H                                       1.0812926
    25   6 C       31   1 H                                       1.0840215
    24   6 C       32   1 H                                       1.0811195
    26   6 C       33   1 H                                       1.0886868
    28   6 C       35   8 O                                       1.2300456
    28   6 C       37   7 N                                       1.4000242
    36   7 N       38   6 C                                       1.3115171
    37   7 N       38   6 C                                       1.4172355
    37   7 N       39   6 C                                       1.4592070
    39   6 C       41   1 H                                       1.0976744
    39   6 C       42   1 H                                       1.0932857
    43   6 C       44   8 O                                       1.1772929
    40   6 C       47   1 H                                       1.0960064
    48   6 C       49   6 C                                       1.5288465
    49   6 C       50   1 H                                       1.0890004
    49   6 C       51   1 H                                       1.0855199
    49   6 C       52   1 H                                       1.0861123
    48   6 C       53   1 H                                       1.0972564
    48   6 C       54   8 O                                       1.4126555
    54   8 O       55   1 H                                       0.9764580
    56   7 N       58   6 C                                       1.4258708
    58   6 C       59   1 H                                       1.0990257
    60   6 C       61   1 H                                       1.0924985
    60   6 C       62   1 H                                       1.0965946
    63   6 C       64   6 C                                       1.3921732
    64   6 C       65   1 H                                       1.0796812
    64   6 C       66   6 C                                       1.3845232
    66   6 C       67   1 H                                       1.0783801
    66   6 C       68   6 C                                       1.3925539
    68   6 C       69   8 O                                       1.3577515
    69   8 O       70   1 H                                       0.9726737
    68   6 C       71   6 C                                       1.3963541
    71   6 C       72   1 H                                       1.0811989
    63   6 C       73   6 C                                       1.3927685
    71   6 C       73   6 C                                       1.3861638
    73   6 C       74   1 H                                       1.0810011
    75   6 C       76   8 O                                       1.2249484
    75   6 C       77   7 N                                       1.3445582
    77   7 N       78   1 H                                       1.0108486
    77   7 N       79   6 C                                       1.4417107
    79   6 C       80   1 H                                       1.0968849
    79   6 C       81   6 C                                       1.5195364
    81   6 C       82   1 H                                       1.0912472
    81   6 C       83   1 H                                       1.0925461
    84   6 C       85   8 O                                       1.2227836
    84   6 C       86   7 N                                       1.3391649
    86   7 N       87   1 H                                       1.0101505
    86   7 N       88   1 H                                       1.0061263
    89   6 C       90   8 O                                       1.2290134
    89   6 C       91   7 N                                       1.3317433
    91   7 N       92   1 H                                       1.0102207
    91   7 N       93   6 C                                       1.4480040
    93   6 C       94   1 H                                       1.0920426
    93   6 C       95   6 C                                       1.5215023
    95   6 C       96   1 H                                       1.0936184
    95   6 C       97   1 H                                       1.0902293
    99   6 C      100   8 O                                       1.2310294
    99   6 C      101   7 N                                       1.3357535
   101   7 N      102   1 H                                       1.0122846
   101   7 N      103   6 C                                       1.4541685
   103   6 C      104   1 H                                       1.0986483
   105   6 C      106   1 H                                       1.0952613
   105   6 C      107   1 H                                       1.0870074
   105   6 C      108   6 C                                       1.4809066
   108   6 C      109   7 N                                       1.3743270
   109   7 N      110   1 H                                       1.0112075
   109   7 N      111   6 C                                       1.3362566
   111   6 C      112   1 H                                       1.0702843
   111   6 C      113   7 N                                       1.3204590
   108   6 C      114   6 C                                       1.3677811
   113   7 N      114   6 C                                       1.3676738
   114   6 C      115   1 H                                       1.0668367
   116   6 C      117   8 O                                       1.2278938
   116   6 C      118   7 N                                       1.3355128
   118   7 N      119   1 H                                       1.0100229
   118   7 N      120   6 C                                       1.4461461
   120   6 C      121   1 H                                       1.0948885
   120   6 C      122   6 C                                       1.5339959
   122   6 C      123   1 H                                       1.0921877
   122   6 C      124   1 H                                       1.0909831
   125   6 C      126   8 O                                       1.2229154
   125   6 C      127   7 N                                       1.3287376
   127   7 N      128   1 H                                       1.0076291
   127   7 N      129   1 H                                       1.0056188
   130   6 C      131   8 O                                       1.1833897
   132   7 N      134   6 C                                       1.3711130
   134   6 C      135   1 H                                       1.0902711
   136   6 C      137   1 H                                       1.0913612
   136   6 C      138   1 H                                       1.0903759
   136   6 C      139   6 C                                       1.5375939 (max)
   139   6 C      140   1 H                                       1.0905622
   139   6 C      141   1 H                                       1.0895128
   139   6 C      142   6 C                                       1.5304178
   142   6 C      143   1 H                                       1.0952708
   142   6 C      144   1 H                                       1.0949034
   142   6 C      145   7 N                                       1.4483541
   145   7 N      146   1 H                                       1.0078148
   145   7 N      147   6 C                                       1.3323296
   147   6 C      148   7 N                                       1.3268847
   148   7 N      149   1 H                                       1.0043855
   148   7 N      150   1 H                                       1.0056149
   147   6 C      151   7 N                                       1.3299705
   151   7 N      152   1 H                                       1.0050602
   151   7 N      153   1 H                                       1.0056201
   154   6 C      155   8 O                                       1.1604991
   156   7 N      158   6 C                                       1.4243660
   158   6 C      159   1 H                                       1.0949501
   160   6 C      161   1 H                                       1.0953242
   160   6 C      162   1 H                                       1.0915831
   160   6 C      163   8 O                                       1.4016708
   163   8 O      164   1 H                                       0.9647875 (min)
   165   6 C      166   8 O                                       1.2291281
   165   6 C      167   7 N                                       1.3364637
   167   7 N      168   1 H                                       1.0156955
   167   7 N      169   6 C                                       1.4425222
   169   6 C      170   1 H                                       1.0973421
   171   6 C      172   1 H                                       1.1037480
   171   6 C      173   6 C                                       1.5237198
   173   6 C      174   1 H                                       1.0879897
   173   6 C      175   1 H                                       1.0846226
   173   6 C      176   1 H                                       1.0859154
   171   6 C      177   8 O                                       1.4008699
   177   8 O      178   1 H                                       0.9710198
   179   6 C      180   8 O                                       1.2276253
   179   6 C      181   7 N                                       1.3399468
   181   7 N      182   1 H                                       1.0173354
   181   7 N      183   6 C                                       1.4437743
   183   6 C      184   1 H                                       1.1047463
   185   6 C      186   1 H                                       1.0898889
   185   6 C      187   1 H                                       1.0980902
   189   6 C      190   8 O                                       1.2271549
   189   6 C      191   7 N                                       1.3255326
   191   7 N      192   1 H                                       1.0107158
   191   7 N      193   6 C                                       1.4326811
   193   6 C      194   1 H                                       1.0919252
   195   6 C      196   1 H                                       1.0998128
   195   6 C      197   1 H                                       1.0870845
   195   6 C      198   8 O                                       1.4057023
   198   8 O      199   1 H                                       0.9909302
   200   6 C      201   8 O                                       1.2310833
   200   6 C      202   7 N                                       1.3234916
   202   7 N      203   1 H                                       1.0166118
   202   7 N      204   6 C                                       1.4455117
   204   6 C      205   1 H                                       1.0916082
   204   6 C      206   6 C                                       1.5296674
   206   6 C      207   1 H                                       1.0871383
   206   6 C      208   1 H                                       1.0851834
   206   6 C      209   1 H                                       1.0867349
   210   6 C      211   8 O                                       1.1923555
   214   6 C      215   1 H                                       1.0930340
   216   6 C      217   1 H                                       1.0904752
   216   6 C      218   1 H                                       1.0935968
   216   6 C      219   6 C                                       1.5133998
   219   6 C      220   1 H                                       1.0942223
   219   6 C      221   6 C                                       1.5227198
   221   6 C      222   1 H                                       1.0925644
   221   6 C      223   1 H                                       1.0833836
   221   6 C      224   1 H                                       1.0833056
   219   6 C      225   6 C                                       1.5221172
   225   6 C      226   1 H                                       1.0882202
   225   6 C      227   1 H                                       1.0827836
   225   6 C      228   1 H                                       1.0866440
   229   6 C      230   8 O                                       1.2244860
   229   6 C      231   7 N                                       1.3282941
   231   7 N      232   1 H                                       1.0092872
   231   7 N      233   6 C                                       1.4304769
   233   6 C      234   1 H                                       1.0910784
   233   6 C      235   6 C                                       1.5301697
   235   6 C      236   1 H                                       1.0901807
   235   6 C      237   1 H                                       1.0937643
   235   6 C      238   6 C                                       1.5209938
   238   6 C      239   1 H                                       1.0921099
   238   6 C      240   6 C                                       1.5305669
   240   6 C      241   1 H                                       1.0853530
   240   6 C      242   1 H                                       1.0844865
   240   6 C      243   1 H                                       1.0870858
   238   6 C      244   6 C                                       1.5250563
   244   6 C      245   1 H                                       1.0895474
   244   6 C      246   1 H                                       1.0788489
   244   6 C      247   1 H                                       1.0886822
   248   6 C      249   8 O                                       1.2289293
   248   6 C      250   7 N                                       1.3328812
   250   7 N      251   1 H                                       1.0118434
   250   7 N      252   6 C                                       1.4461580
   252   6 C      253   1 H                                       1.0898917
   252   6 C      254   6 C                                       1.5329454
   254   6 C      255   1 H                                       1.0821260
   254   6 C      256   1 H                                       1.0955407
   254   6 C      257   6 C                                       1.5215936
   257   6 C      258   1 H                                       1.0888053
   257   6 C      259   1 H                                       1.0933543
   263   6 C      264   8 O                                       1.2284011
   263   6 C      265   7 N                                       1.3188799
   265   7 N      266   1 H                                       1.0126337
   265   7 N      267   6 C                                       1.4342825
   267   6 C      268   1 H                                       1.0971993
   267   6 C      269   6 C                                       1.5300048
   269   6 C      270   1 H                                       1.0935778
   269   6 C      271   1 H                                       1.0896403
   272   6 C      273   6 C                                       1.3909113
   273   6 C      274   1 H                                       1.0789151
   273   6 C      275   6 C                                       1.3860559
   275   6 C      276   1 H                                       1.0770548
   275   6 C      277   6 C                                       1.3871755
   277   6 C      278   1 H                                       1.0746088
   277   6 C      279   6 C                                       1.3880561
   279   6 C      280   1 H                                       1.0753220
   272   6 C      281   6 C                                       1.3887769
   279   6 C      281   6 C                                       1.3820200
   281   6 C      282   1 H                                       1.0846549
   283   6 C      284   8 O                                       1.2327955
   283   6 C      285   7 N                                       1.3213714
   285   7 N      286   1 H                                       1.0094394
   285   7 N      287   6 C                                       1.4260253
   287   6 C      288   1 H                                       1.0933568
   289   6 C      290   1 H                                       1.0972889
   289   6 C      291   6 C                                       1.5213979
   291   6 C      292   1 H                                       1.0878896
   291   6 C      293   1 H                                       1.0846731
   291   6 C      294   1 H                                       1.0866611
   289   6 C      295   6 C                                       1.5269949
   295   6 C      296   1 H                                       1.0871956
   295   6 C      297   1 H                                       1.0899704
   295   6 C      298   1 H                                       1.0885611
   299   6 C      300   8 O                                       1.2237453
   299   6 C      301   7 N                                       1.3301883
   301   7 N      302   1 H                                       1.0137378
   301   7 N      303   6 C                                       1.4322554
   303   6 C      304   1 H                                       1.0959425
   305   6 C      306   1 H                                       1.0948465
   305   6 C      307   6 C                                       1.5051407
   307   6 C      308   1 H                                       1.0871989
   307   6 C      309   1 H                                       1.0868703
   307   6 C      310   1 H                                       1.0882878
   305   6 C      311   8 O                                       1.3927405
   311   8 O      312   1 H                                       0.9704883
   313   6 C      314   8 O                                       1.1729106

 * 6 distinct bonds (by element types)

   Z      Z             #   av. dist./Å        max./Å        min./Å
   1 H    6 C         114     1.0892477     1.1047463     1.0668367
   6 C    6 C          45     1.4660398     1.5375939     1.3646599
   1 H    7 N          23     1.0099958     1.0173354     1.0043855
   6 C    7 N          44     1.3798986     1.4592070     1.3115171
   1 H    8 O           6     0.9743929     0.9909302     0.9647875
   6 C    8 O          28     1.2520328     1.4126555     1.1571022


optimized geometry written to: xtbopt.xyz


           -------------------------------------------------
          | TOTAL ENERGY             -513.647266880691 Eh   |
          | GRADIENT NORM               0.003704578206 Eh/α |
          | HOMO-LUMO GAP               0.017049380158 eV   |
           -------------------------------------------------

------------------------------------------------------------------------
 * finished run on 2024/01/20 at 14:24:40.123     
------------------------------------------------------------------------
 total:
 * wall-time:     0 d,  0 h,  9 min, 58.457 sec
 *  cpu-time:     0 d,  3 h, 45 min, 44.071 sec
 * ratio c/w:    22.632 speedup
 SCF:
 * wall-time:     0 d,  0 h,  0 min, 17.990 sec
 *  cpu-time:     0 d,  0 h,  6 min, 46.215 sec
 * ratio c/w:    22.581 speedup
 ANC optimizer:
 * wall-time:     0 d,  0 h,  9 min, 40.255 sec
 *  cpu-time:     0 d,  3 h, 38 min, 53.395 sec
 * ratio c/w:    22.634 speedup
