314
 energy: -512.691729588356 gnorm: 1.053910882834 xtb: 6.6.1 (8d0f1dd)
N           37.57906000000000       27.11592000000000       35.95816000000000
H           38.50406000000000       27.54092000000000       35.58515999999999
C           36.29905000000000       27.42992000000000       35.29416000000000
H           35.60706000000000       26.80892000000000       35.63916000000000
C           35.86804999999999       28.92192000000000       35.35815000000000
H           36.63105000000000       29.45592000000000       35.04116000000000
H           35.07905999999999       29.01892000000000       34.78115000000000
C           35.50906000000000       29.37092000000000       36.74715000000000
H           36.03806000000000       28.85192000000000       37.42115000000000
C           35.81605999999999       30.86692000000000       36.93315999999999
H           35.28405000000000       31.39292000000000       36.27316000000000
H           35.56904999999999       31.13792000000000       37.86116000000000
H           36.79004999999999       31.02092000000000       36.78314999999999
C           34.04305000000000       29.04092000000000       37.01115000000000
H           33.90405000000000       28.05392000000000       36.92815000000000
H           33.79605000000000       29.33692000000000       37.93415000000000
H           33.47005000000000       29.51592000000000       36.34314999999999
C           36.48505000000000       27.18392000000000       33.80516000000000
O           37.49506000000000       27.58492000000000       33.21115000000000
C           38.11605000000000       39.34892000000000       38.72916000000000
C           39.34906000000000       39.61392000000000       38.22416000000000
C           39.78905000000000       39.05692000000000       36.98116000000000
C           37.15805000000000       38.50192000000000       38.10616000000000
C           37.57404999999999       37.93991999999999       36.85814999999999
C           38.81705000000000       38.19291999999999       36.31715000000000
C           35.87405000000000       38.23192000000000       38.63515000000000
C           34.75005000000000       37.49592000000000       38.21016000000000
C           33.48605000000000       37.40092000000000       39.02116000000000
H           37.81221000000000       39.79956000000000       39.67323000000000
H           40.04210999999999       40.26009000000000       38.75787999999999
H           39.10678000000000       37.74612000000000       35.36784999999999
H           36.87490000000000       37.31770000000000       36.30994000000000
H           35.68343000000000       38.65637000000000       39.62108000000000
O           40.91405000000000       39.27892000000000       36.51516000000000
O           33.13105000000000       37.86391999999999       40.10316000000000
N           34.57306000000000       36.72192000000000       37.04415999999999
N           32.63205000000000       36.56191999999999       38.28616000000000
C           33.36406000000000       36.15892000000000       37.11216000000000
C           31.28905000000000       36.22092000000000       38.70016000000000
C           32.74805000000000       35.31892000000000       36.02615000000000
H           30.85392000000000       37.11435000000000       39.15617000000000
H           30.67583000000000       35.97002000000000       37.83114000000000
C           31.15306000000000       35.13292000000000       39.79216000000000
O           30.53905000000000       35.29692000000000       40.87016000000000
N           31.98205000000000       36.28492000000000       35.22515000000000
H           32.44269000000000       37.14711000000000       34.95953000000000
H           31.97646000000000       34.69517000000000       36.47649000000000
C           33.78505000000000       34.63892000000000       35.04116000000000
C           34.81904999999999       35.60491999999999       34.52016000000000
H           35.45665000000000       35.09050000000000       33.79370000000000
H           35.44926000000000       35.98861000000000       35.32732000000000
H           34.35033000000000       36.45406999999999       34.01065000000000
H           33.18950000000000       34.00492000000000       34.37666999999999
O           34.45305000000000       33.54692000000000       35.56516000000000
H           35.07456999999999       33.89274000000000       36.22952000000000
N           42.76606000000000       39.04392000000000       27.78716000000000
H           43.46205999999999       38.36692000000000       27.42516000000000
C           42.62006000000000       39.38992000000000       29.18715000000000
H           42.35706000000000       40.37592000000000       29.24716000000000
C           41.48705000000000       38.59292000000000       29.81915000000000
H           40.90305000000000       38.24892000000000       29.09315000000000
H           41.88204999999999       37.84092000000000       30.33416000000000
C           40.65105000000000       39.41992000000000       30.75315000000000
C           39.56005000000000       40.13092000000000       30.25616000000000
H           39.40704999999999       40.16092000000000       29.25816000000000
C           38.66306000000000       40.80891999999999       31.08716000000000
H           37.88005000000000       41.28292000000000       30.70415000000000
C           38.89005000000000       40.80292000000000       32.46016000000000
O           38.05405000000000       41.55991999999999       33.24715000000000
H           37.38305000000000       42.01892000000000       32.66716000000000
C           40.00504999999999       40.12792000000000       32.97715000000000
H           40.18705000000000       40.15892000000000       33.96214999999999
C           40.86406000000000       39.41391999999999       32.13216000000000
H           41.62006000000000       38.90592000000000       32.51616000000000
C           43.88205000000000       39.19492000000000       30.02216000000000
O           44.59805000000000       38.18492000000000       29.91016000000000
N           44.13705000000000       40.18592000000000       30.88116000000000
H           43.44505000000000       40.96391999999999       30.85216000000000
C           45.27605000000000       40.15091999999999       31.75616000000000
H           45.99305000000000       39.60692000000000       31.30416000000000
C           45.69905000000000       41.57092000000000       32.05215000000000
H           44.89505000000000       42.12092000000000       32.20116000000000
H           46.29506000000000       41.57092000000000       32.83715000000000
C           46.45405999999999       42.12591999999999       30.87016000000000
O           47.32004999999999       41.43992000000000       30.30016000000000
N           46.07705000000000       43.33592000000000       30.44516000000000
H           46.53605000000000       43.75391999999999       29.66315000000000
H           45.33805000000000       43.81791999999999       30.91216000000000
C           44.93005000000000       39.43392000000000       33.04916000000000
O           43.74904999999999       39.16391999999999       33.32616000000000
N           45.97304999999999       39.13592000000000       33.82016000000000
H           46.89906000000000       39.42092000000000       33.40815000000000
C           45.85606000000000       38.47892000000000       35.11116000000000
H           44.99805000000000       37.96992000000000       35.12016000000000
C           47.13104999999999       37.69992000000000       35.39315000000000
H           47.10006000000000       37.37892000000000       36.31916000000000
H           47.89705000000000       38.28491999999999       35.22015000000000
S           47.22205000000000       36.29392000000000       34.29916000000000
C           45.80806000000000       39.53992000000000       36.13715000000000
O           46.51405000000000       40.48091999999999       35.92815000000000
N           45.00406000000000       39.40192000000000       37.20215999999999
H           44.46906000000000       38.51492000000000       37.23116000000000
C           44.89806000000000       40.44392000000000       38.24815000000000
H           45.71006000000000       41.04191999999999       38.16016000000000
C           43.69006000000000       41.37592000000000       38.11415000000000
H           42.88005000000000       40.91092000000000       38.47916000000000
H           43.86005000000000       42.20592000000000       38.65115000000000
C           43.41804999999999       41.76992000000000       36.70414999999999
N           42.77105000000000       40.91792000000000       35.81615000000000
H           42.43805000000000       40.01692000000000       36.01616000000000
C           42.69205000000000       41.55792000000000       34.65615000000000
H           42.26606000000000       41.19792000000000       33.82315000000000
N           43.26805000000000       42.76292000000000       34.75415000000000
C           43.69505000000000       42.93492000000000       36.04816000000000
H           44.12006000000000       43.74092000000000       36.43315999999999
C           44.86104999999999       39.85992000000000       39.62115000000000
O           44.98604999999999       38.63792000000000       39.78415999999999
N           44.75605000000000       40.77891999999999       40.57314999999999
H           44.75306000000000       41.76992000000000       40.20316000000000
C           44.65405000000000       40.47592000000000       41.98616000000000
H           44.56805000000000       39.48292000000000       42.07415000000000
C           45.76305000000000       41.08792000000000       42.84616000000000
H           45.61104999999999       42.09391999999999       42.87315000000000
H           45.63605000000000       40.74792000000000       43.79715999999999
C           47.17405000000000       40.82792000000000       42.42715000000000
O           47.94504999999999       41.77692000000000       42.29816000000000
N           47.52204999999999       39.57091999999999       42.29216000000000
H           48.45905000000000       39.32892000000000       42.01815000000000
H           46.86005000000000       38.83491999999999       42.45916000000000
C           43.37706000000000       41.08492000000000       42.52116000000000
O           43.26505000000000       42.30692000000000       42.58416000000000
N           42.84406000000000       45.96992000000000       33.75315000000000
H           43.01205000000000       44.99092000000000       34.08814999999999
C           43.64505000000000       46.61392000000000       32.75016000000000
H           43.43306000000000       47.59191999999999       32.73816000000000
C           45.09406000000000       46.25392000000000       32.92416000000000
H           45.20705000000000       45.27191999999999       32.75515000000000
H           45.63805000000000       46.76592000000000       32.25515000000000
C           45.67105000000000       46.54892000000000       34.30315000000000
H           45.05906000000000       47.16192000000000       34.79615000000000
H           45.78005999999999       45.69691999999999       34.80816000000000
C           47.04205000000000       47.22192000000000       34.21416000000000
H           47.64704999999999       46.60591999999999       33.71915000000000
H           46.92605999999999       48.07092000000000       33.70716000000000
N           47.58105000000000       47.49791999999999       35.52116000000000
H           47.05105999999999       47.24292000000000       36.32914999999999
C           48.76304999999999       48.08092000000000       35.70415000000000
N           49.61306000000000       48.27092000000000       34.70515000000000
H           49.36205000000000       47.98892000000000       33.77716000000000
H           50.50206000000000       48.69492000000000       34.87516000000000
N           49.12304999999999       48.43791999999999       36.93916000000000
H           48.50306000000000       48.28492000000000       37.70614999999999
H           50.01706000000000       48.85992000000000       37.09315000000000
C           43.28706000000000       46.01692000000000       31.43015000000000
O           43.84705000000000       45.01892000000000       31.10216000000000
N           44.30505000000000       35.64292000000000       42.93315999999999
H           44.27705000000000       34.81892000000000       43.63715000000000
C           45.19806000000000       35.62592000000000       41.80815999999999
H           45.45005000000000       36.55692000000000       41.58416000000000
C           46.37206000000000       34.69992000000000       42.16116000000000
H           46.44006000000000       34.63692000000000       43.15814999999999
H           46.18505000000000       33.79092000000000       41.78516000000000
O           47.61005000000000       35.16392000000000       41.64415000000000
H           47.67904999999999       36.15092000000000       41.78315000000000
C           44.39206000000000       35.06892000000000       40.64715999999999
O           44.12105999999999       33.85892000000000       40.57015999999999
N           44.00306000000000       35.97492000000000       39.77215999999999
H           44.40905000000000       36.92291999999999       39.91116000000000
C           43.08006000000000       35.64692000000000       38.70916000000000
H           42.74905000000000       34.68592000000000       38.85316000000000
C           41.78106000000000       36.51892000000000       38.82716000000000
H           42.00305999999999       37.46492000000000       38.48215000000000
C           40.66705000000000       36.01692000000000       37.91315000000000
H           41.06005000000000       35.67392000000000       37.05815999999999
H           40.16605000000000       35.27691999999999       38.36614999999999
H           40.03404999999999       36.76591999999999       37.70816000000000
O           41.30105999999999       36.62892000000000       40.16816000000000
H           42.03106000000000       36.95892000000000       40.77716000000000
C           43.64905999999999       35.73692000000000       37.29916000000000
O           44.18905000000000       36.77092000000000       36.89116000000000
N           43.45705000000000       34.63591999999999       36.56316000000000
H           43.05305000000000       33.83292000000000       37.10616000000000
C           43.77605000000000       34.55892000000000       35.15316000000000
H           43.98005000000000       35.48592000000000       34.81915999999999
C           45.14005000000000       33.97791999999999       34.67916000000000
H           45.57405000000000       34.68492000000000       34.09515000000000
H           44.93105000000000       33.18492000000000       34.08315999999999
S           46.33404999999999       33.45692000000000       35.93616000000000
C           42.58805000000000       34.02692000000000       34.36515000000000
O           41.77406000000000       33.23892000000000       34.84916000000000
N           42.43905000000000       34.56392000000000       33.17115000000000
H           43.13904999999999       35.29292000000000       32.92815000000000
C           41.37705999999999       34.14692000000000       32.30016000000000
H           41.11805000000000       33.21392000000000       32.53616000000000
C           40.12605000000000       34.99892000000000       32.44516000000000
H           39.90904999999999       35.40892000000000       31.56215000000000
H           39.37105999999999       34.41792000000000       32.74316000000000
O           40.31305000000000       36.02891999999999       33.39516000000000
H           39.63605000000000       35.93792000000000       34.12516000000000
C           41.92505000000000       34.13892000000000       30.89416000000000
O           42.88405999999999       34.80891999999999       30.65416000000000
N           41.34406000000000       33.36692000000000       30.00816000000000
H           40.50705000000000       32.84392000000000       30.36815000000000
C           41.81705000000000       33.24592000000000       28.64816000000000
H           42.33505999999999       34.07292000000000       28.41516000000000
C           42.56606000000000       31.92992000000000       28.47416000000000
H           42.96906000000000       31.89392000000000       27.56016000000000
H           43.29005000000000       31.86492000000000       29.16016000000000
H           41.93004999999999       31.16692000000000       28.58716000000000
C           40.64205999999999       33.12692000000000       27.76616000000000
O           39.83104999999999       32.19792000000000       27.94516000000000
N           35.42006000000000       31.07892000000000       27.79216000000000
H           34.53905000000000       30.51692000000000       27.87515000000000
C           36.17904999999999       31.53392000000000       28.95216000000000
H           36.95406000000000       32.10892000000000       28.61716000000000
C           35.31506000000000       32.41192000000000       29.86016000000000
H           35.15606000000000       33.26292000000000       29.39416000000000
H           34.48206000000000       31.92592000000000       30.04616000000000
C           35.98605000000000       32.71892000000000       31.18115999999999
H           36.13605000000000       31.87592000000000       31.68015000000000
C           37.32005000000000       33.37492000000000       30.88515000000000
H           37.17305000000000       34.21992000000000       30.36815000000000
H           37.78805999999999       33.58992000000000       31.74416000000000
H           37.89005000000000       32.75292000000000       30.34516000000000
C           35.11805000000000       33.70092000000000       31.96916000000000
H           34.22104999999999       33.29092000000000       32.13416000000000
H           35.55906000000000       33.90492000000000       32.84216000000000
H           35.01006000000000       34.54392000000000       31.44216000000000
C           36.74105000000000       30.41792000000000       29.79916000000000
O           36.11305999999999       29.41192000000000       30.01616000000000
N           37.92405000000000       30.68292000000000       30.28616000000000
H           38.28605000000000       31.64992000000000       29.98416000000000
C           38.67805000000000       29.82392000000000       31.12016000000000
H           38.06805000000000       29.20592000000000       31.61115000000000
C           39.70805000000000       29.06292000000000       30.27316000000000
H           39.22805000000000       28.39192000000000       29.74816000000000
H           40.18605000000000       29.71492000000000       29.72515000000000
C           40.72205000000000       28.34191999999999       31.14416000000000
H           41.13705000000000       28.98492000000000       31.77216000000000
C           39.98405000000000       27.26292000000000       31.94516000000000
H           39.55405000000000       26.62092000000000       31.31316000000000
H           40.63805000000000       26.77892000000000       32.52415000000000
H           39.28605000000000       27.69492000000000       32.51316000000000
C           41.81705000000000       27.73192000000000       30.27916000000000
H           42.28106000000000       28.45592000000000       29.76715000000000
H           42.47904999999999       27.25992000000000       30.86216000000000
H           41.41206000000000       27.07892000000000       29.63916000000000
C           39.38305000000000       30.69692000000000       32.13615000000000
O           40.06704999999999       31.65192000000000       31.75816000000000
N           39.19806000000000       30.33592000000000       33.41616000000000
H           38.61406000000000       29.45292000000000       33.51115000000000
C           39.72104999999999       31.04592000000000       34.57415000000000
H           40.32905999999999       31.80492000000000       34.25716000000000
C           38.56405000000000       31.66292000000000       35.38614999999999
H           37.86905000000000       30.97992000000000       35.46716000000000
H           38.93005000000000       31.94391999999999       36.24815000000000
C           37.95905000000000       32.87392000000000       34.71314999999999
H           38.56606000000000       33.15992000000000       33.99715000000000
H           37.07105000000000       32.62492000000000       34.37516000000000
C           37.79406000000000       34.00691999999999       35.66615999999999
O           37.77305999999999       35.17092000000000       35.28616000000000
O           37.69605000000000       33.60092000000000       36.92616000000000
C           40.48305999999999       30.17192000000000       35.55315000000000
O           40.13905000000000       29.05292000000000       35.86016000000000
N           41.48905999999999       30.74992000000000       36.13615000000000
H           41.71405000000000       31.70492000000000       35.82015999999999
C           42.20805000000000       30.04392000000000       37.15714999999999
H           41.61804999999999       29.30992000000000       37.48215000000000
C           43.52705000000000       29.45392000000000       36.68616000000000
H           44.09605000000000       30.18092000000000       36.40015000000000
H           43.88405999999999       28.90792000000000       37.40015000000000
C           43.23705000000000       28.58592000000000       35.52016000000000
C           42.82605000000000       27.26192000000000       35.69815000000000
H           42.73004999999999       26.88892000000000       36.60814999999999
C           42.54805000000000       26.46092000000000       34.58916000000000
H           42.29905000000000       25.50292000000000       34.71314999999999
C           42.62605000000000       27.01992000000000       33.30816000000000
H           42.42105000000000       26.43692000000000       32.51015000000000
C           42.97705000000000       28.35392000000000       33.11316000000000
H           43.02205000000000       28.74891999999999       32.19715000000000
C           43.26805000000000       29.12892000000000       34.23415000000000
H           43.50406000000000       30.09592000000000       34.11615000000000
C           42.39305000000000       30.99892000000000       38.29116000000000
O           42.65304999999999       32.19392000000000       38.10115000000000
N           42.08905000000000       30.53892000000000       39.47315999999999
H           41.83606000000000       29.56192000000000       39.54014999999999
C           42.15004999999999       31.46992000000000       40.53215000000000
H           42.85806000000000       32.15592000000000       40.32516000000000
C           40.79105000000000       32.21392000000000       40.70016000000000
H           40.20105000000000       31.62991999999999       41.24815000000000
C           40.97506000000000       33.51792000000000       41.46616000000000
H           41.78605000000000       33.45192000000000       42.04716000000000
H           41.09005000000000       34.27092000000000       40.81915999999999
H           40.17005999999999       33.68692000000000       42.03516000000000
C           40.11104999999999       32.52492000000000       39.36816000000000
H           40.02605000000000       33.51492000000000       39.26715000000000
H           40.66505000000000       32.15492000000000       38.62416000000000
H           39.20506000000000       32.10392000000000       39.35715000000000
C           42.54705000000000       30.75592000000000       41.77816000000000
O           42.00206000000000       29.72492000000000       42.09116000000000
N           43.46305000000000       31.34191999999999       42.49815000000000
H           43.84206000000000       32.22992000000000       42.08915999999999
C           43.90606000000000       30.79992000000000       43.74916000000000
H           43.24905000000000       30.09892000000000       44.05516000000000
C           45.31005000000000       30.26792000000000       43.63316000000000
H           45.95305000000000       31.04792000000000       43.46815000000000
C           45.56105000000000       29.54492000000000       44.92415999999999
H           45.43605000000000       28.55392000000000       44.80116000000000
H           46.50105000000000       29.71192000000000       45.24216000000000
H           44.92204999999999       29.86192000000000       45.63316000000000
O           45.37706000000000       29.39692000000000       42.53516000000000
H           45.42606000000000       29.90992000000000       41.66515000000000
C           43.96205999999999       31.88692000000000       44.79816000000000
O           44.38305000000000       33.01492000000000       44.51215000000000
314
 energy: -513.176713767454 gnorm: 0.518795404290 xtb: 6.6.1 (8d0f1dd)
N           37.57142709898486       27.11377972337337       35.94346636010579
H           38.47980539683234       27.54312492374548       35.59060996978220
C           36.32308490827264       27.42992421347851       35.29993050385392
H           35.59080354059506       26.79118749295289       35.65530001231556
C           35.87275564336898       28.91183272065139       35.36245307445837
H           36.66135432391555       29.47592638566645       35.02809043052854
H           35.05008982121233       29.02206988425588       34.75727176359744
C           35.50428212085491       29.37081121144509       36.74661307368218
H           36.05761154765522       28.83750100192826       37.44233709591932
C           35.81177783822633       30.85457329206530       36.93071734206011
H           35.26644524756914       31.41078407976012       36.25148985462071
H           35.56014527648534       31.14492377182977       37.89021380887871
H           36.81716225909918       31.02550192450955       36.78397862170360
C           34.04866796623246       29.04266243500304       37.00990767988493
H           33.90135896031481       28.02261071072789       36.92560201213590
H           33.78951710392542       29.34711711395009       37.96351077507947
H           33.45198926357671       29.53261293340883       36.32179793723647
C           36.50907251395840       27.18850308077089       33.80891382968442
O           37.47336736098203       27.58433039555644       33.21052051606000
C           38.11152439313566       39.34748378006850       38.73247326155943
C           39.34541416721241       39.61355758901174       38.22557198343121
C           39.78135593649650       39.05329839689284       36.98190189119467
C           37.15610245947289       38.49935741344196       38.10029295253148
C           37.57586511119055       37.94236632638682       36.85521673353006
C           38.81294122135963       38.19469219669516       36.31930784719565
C           35.87011208696618       38.22908846438117       38.63563572875449
C           34.74809505323400       37.49511160236932       38.21193685859606
C           33.48739682619461       37.39656513802331       39.01773109233065
H           37.81279849132227       39.79918204434057       39.67334293497443
H           40.03978749813351       40.25874850032196       38.75662558622226
H           39.10559849105871       37.74756493462269       35.37095192951573
H           36.87821289776218       37.31735863017346       36.31121439731369
H           35.68340828528804       38.65790512363012       39.62015360626425
O           40.91671169320193       39.27598543338185       36.51370738892783
O           33.13449034046787       37.86586391683890       40.10076922868755
N           34.56461040656147       36.72356216696419       37.05662113924672
N           32.63644763546446       36.55868023570984       38.28005013660156
C           33.36825560792690       36.16231437849243       37.11651509145909
C           31.29168385931617       36.22169762243873       38.70248710960468
C           32.74938540137624       35.33430951566582       36.02153986552077
H           30.85625378448012       37.11815006631878       39.15667804412350
H           30.67921101125428       35.96562131923854       37.83223070369428
C           31.15002481590941       35.14287957175083       39.80135593085046
O           30.54275031206358       35.29237835070732       40.85190610468835
N           31.97689418272422       36.28294896831614       35.23111881810593
H           32.44995890577080       37.14152321812445       34.96268226623888
H           31.98423092420730       34.68961854168928       36.47068310580640
C           33.78244030804436       34.63402393288822       35.04687144672935
C           34.81460498583171       35.60832507980363       34.51543574009528
H           35.45662470594370       35.09808504725407       33.80130151275025
H           35.44528877063996       35.98524510272296       35.32454305743826
H           34.35028196959718       36.45488696857103       34.01064490120540
H           33.18398053388652       34.02105608776454       34.36381857352055
O           34.45779528549945       33.54098394457062       35.58109388826335
H           35.08053111580433       33.88922081024112       36.23310086178332
N           42.76219973866011       39.04846876047647       27.78491184516056
H           43.45904390672533       38.37032073432664       27.44328993840471
C           42.63218284435773       39.38139428122343       29.17768428635470
H           42.35327978051541       40.39545971387764       29.24051595229872
C           41.48518778178341       38.60277304984711       29.82544285643972
H           40.88339930001847       38.23990302290646       29.06860700721657
H           41.89566531160152       37.81466880834526       30.35257921187245
C           40.64527126937403       39.42211265794339       30.75543840324338
C           39.56026041439089       40.13165198884613       30.26316096286811
H           39.40325996464528       40.16079720439931       29.23662049738394
C           38.67525744295539       40.80308246937896       31.08931255416337
H           37.86077950086663       41.29485134811334       30.69234188656064
C           38.89068024398176       40.80596905724617       32.45874754274912