314
 energy: -512.690646842345 gnorm: 1.055046955081 xtb: 6.6.1 (8d0f1dd)
N           39.44380999999999       27.29092000000000       37.76390000000000
H           40.31281000000000       27.89592000000000       37.52591000000000
C           38.22881000000000       27.38192000000000       36.93391000000000
H           37.62779999999999       26.63092000000000       37.17590999999999
C           37.51680000000000       28.76292000000000       36.94991000000000
H           38.19880000000000       29.44092000000000       36.74490000000000
H           36.80780000000000       28.72992000000000       36.27090000000000
C           36.89680000000000       29.08992000000000       38.28091000000000
H           37.41980000000000       28.65592000000000       39.01591000000000
C           36.88680000000000       30.60992000000000       38.51891000000000
H           36.35780000000000       31.04992000000000       37.79691000000000
H           36.47181000000000       30.79792000000000       39.40591000000000
H           37.82481000000000       30.94792000000000       38.50491000000000
C           35.49881000000000       28.48192000000000       38.33891000000000
H           35.56281000000000       27.48992000000000       38.23089999999999
H           35.07980000000000       28.69492000000000       39.22190000000000
H           34.93980000000000       28.86292000000000       37.60291000000000
C           38.65380000000000       27.22492000000000       35.48191000000000
O           39.63881000000000       27.82892000000000       35.03489999999999
C           37.27180000000000       39.30591999999999       40.68391000000000
C           38.48780000000000       39.81392000000000       40.35390000000000
C           39.18781000000000       39.39192000000000       39.17791000000000
C           36.58480000000000       38.31591999999999       39.92791000000000
C           37.26180000000000       37.88392000000000       38.74390000000000
C           38.49380000000000       38.38392000000000       38.37991000000000
C           35.31680000000000       37.79292000000000       40.27391000000000
C           34.41879999999999       36.87392000000000       39.69291000000000
C           33.09980000000000       36.51591999999999       40.32291000000000
H           36.76560000000000       39.65964000000000       41.58129000000000
H           38.96850999999999       40.56014000000000       40.98225000000000
H           38.98627000000000       38.03251000000000       37.47507000000000
H           36.77274000000000       37.16035000000000       38.10065000000000
H           34.91990999999999       38.14038000000000       41.22799999999999
O           40.30180000000000       39.83691999999999       38.87291000000000
O           32.52380000000000       36.86792000000000       41.34991000000000
N           34.54881000000000       36.12092000000000       38.50790000000000
N           32.52681000000000       35.55792000000000       39.46991000000000
C           33.47081000000000       35.33991999999999       38.40491000000000
C           31.23080000000000       34.95692000000000       39.69390000000000
C           33.17580000000000       34.43592000000000       37.23690000000000
H           30.57622000000000       35.73720000000000       40.09163999999999
H           30.79816000000000       34.62317000000000       38.74754000000000
C           31.15981000000000       33.82592000000000       40.74891000000000
O           30.38780000000000       33.83592000000000       41.73291000000000
N           32.35381000000000       35.26792000000000       36.34690000000000
H           32.67328000000000       36.20965000000000       36.15405000000000
H           32.48476000000000       33.66315000000000       37.57235000000000
C           34.44580000000000       33.99592000000000       36.39791000000000
C           35.33680000000000       35.15592000000000       36.03191000000000
H           36.15185000000000       34.79539000000000       35.39581999999999
H           35.76893000000000       35.62328000000000       36.92114000000000
H           34.78710000000000       35.91891000000000       35.46974000000000
H           34.07586000000000       33.28424000000000       35.65303000000000
O           35.23279999999999       33.03192000000000       36.99990000000000
H           35.68255000000000       33.46536000000000       37.74630000000000
N           43.30780000000000       40.24992000000000       30.47890000000000
H           44.16279999999999       39.72992000000000       30.20991000000000
C           42.91380000000000       40.51392000000000       31.84891000000000
H           42.46280000000000       41.42992000000000       31.88091000000000
C           41.87880000000000       39.49892000000000       32.31290000000000
H           41.47181000000000       39.07692000000000       31.51091000000000
H           42.33780000000000       38.81592000000000       32.86990000000000
C           40.78481000000000       40.12192000000000       33.13091000000000
C           39.65480000000000       40.63292000000000       32.49390000000000
H           39.63379999999999       40.66891999999999       31.48491000000000
C           38.54181000000000       41.10192000000000       33.19991000000000
H           37.74181000000000       41.43292000000000       32.71690000000000
C           38.58180999999999       41.09191999999999       34.59090000000000
O           37.51981000000000       41.65192000000000       35.26291000000000
H           36.84980000000000       41.98291999999999       34.59991000000000
C           39.72580000000000       40.61991999999999       35.24990000000000
H           39.76580000000000       40.64991999999999       36.25090000000000
C           40.80980000000000       40.10892000000000       34.52491000000000
H           41.58980999999999       39.73892000000000       35.00591000000000
C           44.06781000000000       40.53092000000000       32.84690000000000
O           44.97081000000000       39.67692000000000       32.82590000000000
N           44.01281000000000       41.52292000000000       33.73991000000000
H           43.19680000000000       42.15892000000000       33.62191000000000
C           45.01080000000000       41.67092000000000       34.76291000000000
H           45.87179999999999       41.28692000000000       34.40791000000000
C           45.11280000000000       43.13492000000000       35.12590000000000
H           44.20580000000000       43.51891999999999       35.16790000000000
H           45.58779999999999       43.21892000000000       35.98590000000000
C           45.89880000000000       43.86191999999999       34.06289999999999
O           46.94780000000000       43.36892000000000       33.61190000000000
N           45.35880000000000       44.99291999999999       33.60091000000000
H           45.82880000000000       45.51592000000000       32.89291000000000
H           44.48580999999999       45.31292000000000       33.96590000000000
C           44.63980000000000       40.85892000000000       35.98991000000000
O           43.50480000000000       40.36392000000000       36.10091000000000
N           45.60780000000000       40.73492000000000       36.89390999999999
H           46.50980000000000       41.20192000000000       36.61591000000000
C           45.44779999999999       40.02391999999999       38.15191000000000
H           44.70880999999999       39.36292000000000       38.03990999999999
C           46.79781000000000       39.48892000000000       38.59890000000000
H           46.70580000000000       39.13592000000000       39.50890000000000
H           47.45580000000000       40.21291999999999       38.53791000000000
S           47.29881000000000       38.16292000000000       37.51591000000000
C           45.06281000000000       41.02192000000000       39.16991000000000
O           45.59781000000000       42.08492000000000       39.06791000000000
N           44.16581000000000       40.69991999999999       40.11491000000000
H           43.81081000000000       39.72791999999999       40.06389999999999
C           43.72579999999999       41.66692000000000       41.14391000000000
H           44.41379999999999       42.40992000000000       41.17390000000000
C           42.39079999999999       42.35992000000000       40.85291000000000
H           41.64280000000000       41.73892000000000       41.10091000000000
H           42.32680999999999       43.18791999999999       41.41590000000000
C           42.23779999999999       42.74392000000000       39.42289999999999
N           41.88979999999999       41.81692000000000       38.44790999999999
H           41.71280000000000       40.86292000000000       38.59291000000000
C           41.84379999999999       42.46991999999999       37.29391000000000
H           41.60680000000000       42.06592000000000       36.40790999999999
N           42.16280000000000       43.75792000000000       37.47989999999999
C           42.37380999999999       43.96192000000000       38.82090000000000
H           42.58381000000000       44.81891999999999       39.26791000000000
C           43.61681000000000       41.04092000000000       42.49389999999999
O           43.94981000000000       39.85792000000000       42.66290999999999
N           43.21381000000000       41.88991999999999       43.43089999999999
H           43.07180000000000       42.87492000000000       43.07191000000000
C           42.98481000000000       41.52592000000000       44.81389999999999
H           43.07780000000000       40.53292000000000       44.88190000000000
C           43.83281000000000       42.30492000000000       45.82291000000000
H           43.48980000000000       43.26292000000000       45.83791000000000
H           43.64880000000000       41.91392000000000       46.74490000000000
C           45.30980000000000       42.32791999999999       45.59790000000000
O           45.89680000000000       43.40891999999999       45.58390000000000
N           45.90580000000000       41.16392000000000       45.50189999999999
H           46.89980000000000       41.11092000000000       45.35590000000000
H           45.37980000000000       40.31192000000000       45.57191000000000
C           41.55581000000000       41.86692000000000       45.17390000000000
O           41.20580000000000       43.04292000000000       45.23090000000000
N           41.27380000000000       46.86092000000000       36.45591000000000
H           41.57879999999999       45.91992000000000       36.80290999999999
C           42.06379999999999       47.67692000000000       35.57790000000000
H           41.67381000000000       48.59792000000000       35.54491000000000
C           43.51780000000000       47.58892000000000       35.94489999999999
H           43.83680000000000       46.65191999999999       35.78490000000000
H           44.03879999999999       48.21592000000000       35.36190000000000
C           43.83981000000000       47.93992000000000       37.39291000000000
H           43.06180999999999       48.40992000000000       37.80290999999999
H           44.04081000000000       47.10591999999999       37.90091000000000
C           45.05680000000000       48.85992000000000       37.49791000000000
H           45.82880000000000       48.38592000000000       37.08490000000000
H           44.85079999999999       49.68991999999999       36.98690000000000
N           45.35479999999999       49.18692000000000       38.86890000000000
H           44.77980000000000       48.81092000000000       39.59491000000000
C           46.36880000000000       49.97491999999999       39.21690000000000
N           47.29380000000000       50.35492000000000       38.34591000000000
H           47.22480000000000       50.06292000000000       37.38990000000000
H           48.05481000000000       50.93091999999999       38.63889999999999
N           46.48780000000000       50.35092000000000       40.49191000000000
H           45.81181000000000       50.05892000000000       41.16590000000000
H           47.25681000000000       50.92692000000000       40.76991000000000
C           42.00380000000000       47.06892000000000       34.21590000000000
O           42.78180000000000       46.20492000000000       33.95990000000000
N           43.43880000000000       36.68392000000000       45.66391000000000
H           43.47479999999999       35.84492000000000       46.35091000000000
C           44.46079999999999       36.87192000000000       44.67191000000000
H           44.55880000000000       37.84092000000000       44.49191000000000
C           45.73080000000000       36.17092000000000       45.17490000000000
H           45.67680000000000       36.08892000000000       46.17090999999999
H           45.77180000000000       35.25592000000000       44.76991000000000
O           46.91580999999999       36.87591999999999       44.83591000000000
H           46.74881000000000       37.85792000000000       44.90491000000000
C           43.93681000000000       36.21392000000000       43.40791000000000
O           43.91379999999999       34.97792000000000       43.28391000000000
N           43.50180000000000       37.05992000000000       42.49389999999999
H           43.69880000000000       38.06192000000000       42.69489999999999
C           42.80780000000000       36.60092000000000       41.31290000000000
H           42.65080000000000       35.58991999999999       41.40191000000000
C           41.36280000000000       37.21092000000000       41.25890000000000
H           41.44580000000000       38.19392000000000       40.95591000000000
C           40.49580000000000       36.54092000000000       40.19691000000000
H           41.07880000000000       36.15491999999999       39.47990000000000
H           39.95681000000000       35.80692000000000       40.61491000000000
H           39.87680000000000       37.21592000000000       39.79090000000000
O           40.69680000000000       37.18292000000000       42.52190000000000
H           41.27580000000000       37.59491999999999       43.23391000000000
C           43.53080000000000       36.84491999999999       39.99490000000000
O           43.91379999999999       37.97492000000000       39.67289999999999
N           43.65181000000000       35.75292000000000       39.22990000000000
H           43.33881000000000       34.87091999999999       39.70591000000000
C           44.16479999999999       35.78492000000000       37.87690000000000
H           44.23180000000000       36.74392000000000       37.58191000000000
C           45.66480000000000       35.48592000000000       37.58891000000000
H           46.02980000000000       36.28091999999999       37.07491000000000
H           45.69180000000000       34.68792000000000       36.96391000000000
S           46.75780000000000       35.15592000000000       38.99290000000000
C           43.21381000000000       35.06692000000000       36.92891000000000
O           42.50780000000000       34.12392000000000       37.28991000000000
N           43.12580000000000       35.60692000000000       35.72990000000000
H           43.70081000000000       36.46192000000000       35.59090000000000
C           42.28780000000000       35.02791999999999       34.71890999999999
H           42.18280000000000       34.05492000000000       34.90891000000000
C           40.88979999999999       35.62592000000000       34.69791000000000
H           40.71779999999999       36.01792000000000       33.79691000000000
H           40.22580000000000       34.90392000000000       34.88491000000000
O           40.74981000000000       36.63991999999999       35.67290000000000
H           40.00979999999999       36.40092000000000       36.30090999999999
C           43.00980000000000       35.17092000000000       33.40091000000000
O           43.84580999999999       36.01692000000000       33.29990000000000
N           42.70881000000000       34.33492000000000       32.43690000000000
H           41.94580000000000       33.65292000000000       32.67490000000000
C           43.37180000000000       34.35092000000000       31.15391000000000
H           43.74980999999999       35.26692000000000       31.00091000000000
C           44.37381000000000       33.20492000000000       31.07391000000000
H           43.90181000000000       32.36792000000000       30.79991000000000
H           45.07880000000000       33.42492000000000       30.40091000000000
H           44.79781000000000       33.07092000000000       31.96890000000000
C           42.36980000000000       34.04392000000000       30.11790000000000
O           41.73279999999999       32.97392000000000       30.17591000000000
N           37.67580000000000       31.05392000000000       29.41191000000000
H           36.91480000000000       30.33392000000000       29.36891000000000
C           38.17280999999999       31.60392000000000       30.66891000000000
H           38.86081000000000       32.32492000000000       30.44790000000000
C           37.04480000000000       32.27292000000000       31.45691000000000
H           36.79081000000000       33.09492000000000       30.98091000000000
H           36.30280000000000       31.63292000000000       31.52390000000000
C           37.46481000000000       32.65492000000000       32.85991000000000
H           37.70480000000000       31.83792000000000       33.36691000000000
C           38.67680000000000       33.55892000000000       32.75491000000000
H           38.44180000000000       34.37892000000000       32.23090000000000
H           38.97781000000000       33.82792000000000       33.67091000000000
H           39.42080000000000       33.07392000000000       32.29290000000000
C           36.32879999999999       33.42992000000000       33.52991000000000
H           35.51281000000000       32.85392000000000       33.56691000000000
H           36.60281000000000       33.68392000000000       34.45691000000000
H           36.13380000000000       34.25492000000000       32.99990000000000
C           38.81981000000000       30.58492000000000       31.57491000000000
O           38.37080000000000       29.47192000000000       31.69591000000000
N           39.85479999999999       31.04892000000000       32.22190000000000
H           40.06281000000000       32.07692000000000       31.98091000000000
C           40.64180000000000       30.31992000000000       33.14391000000000
H           40.10180000000000       29.58192000000000       33.54190000000000
C           41.90080000000000       29.79392000000000       32.43991000000000
H           41.63081000000000       29.06292000000000       31.84891000000000
H           42.31580000000000       30.54192000000000       31.96791000000000
C           42.90881000000000       29.24592000000000       33.43591000000000
H           43.10780000000000       29.93392000000000       34.11990000000000
C           42.28980000000000       28.02192000000000       34.11990000000000
H           42.07680999999999       27.33192000000000       33.42990000000000
H           42.94080000000000       27.64892000000000       34.77890000000000
H           41.45379999999999       28.29592000000000       34.59090000000000
C           44.20480000000000       28.88292000000000       32.72390000000000
H           44.58579999999999       29.69892000000000       32.28691000000000
H           44.86180000000000       28.52292000000000       33.38791000000000
H           44.02081000000000       28.18792000000000       32.02790000000000
C           41.02680999999999       31.27392000000000       34.25391000000000
O           41.55980000000000       32.35292000000000       33.98190999999999
N           40.74480000000000       30.84092000000000       35.49490000000000
H           40.33181000000000       29.86192000000000       35.50090000000000
C           40.96481000000000       31.59692000000000       36.71791000000000
H           41.45480000000000       32.46592000000000       36.49289999999999
C           39.61480000000000       31.95792000000000       37.36989999999999
H           39.05780000000000       31.15392000000000       37.34990999999999
H           39.80280000000000       32.27292000000000       38.27691000000000
C           38.88479999999999       33.05592000000000       36.63091000000000
H           39.51580000000000       33.47492000000000       36.00591000000000
H           38.11280000000000       32.65692000000000       36.17290000000000
C           38.38280000000000       34.10492000000000       37.56091000000000
O           38.19080000000000       35.25692000000000       37.19190999999999
O           38.19680000000000       33.64592000000000       38.79290000000000
C           41.74181000000000       30.84791999999999       37.78590000000000
O           41.57879999999999       29.67392000000000       38.03291000000000
N           42.53279999999999       31.58392000000000       38.50591000000000
H           42.61180000000000       32.57392000000000       38.23191000000000
C           43.23080000000000       30.99092000000000       39.60991000000000
H           42.75279999999999       30.14792000000000       39.84491000000000
C           44.68980000000000       30.67492000000000       39.31890000000000
H           45.14180000000000       31.50491999999999       39.11890000000000
H           45.04480000000000       30.18192000000000       40.07090000000000
C           44.72679999999999       29.80792000000000       38.11690999999999
C           44.55581000000000       28.42492000000000       38.22590999999999
H           44.41379999999999       28.00992000000000       39.11190000000000
C           44.58380999999999       27.62392000000000       37.08290000000000
H           44.50580999999999       26.63292000000000       37.16391000000000
C           44.72479999999999       28.23092000000000       35.82890999999999
H           44.74379999999999       27.64792000000000       35.00591000000000
C           44.83779999999999       29.61392000000000       35.69489999999999
H           44.92780000000000       30.04192000000000       34.79690999999999
C           44.82481000000000       30.39092000000000       36.85191000000000
H           44.88580000000000       31.38792000000000       36.77491000000000
C           43.07880000000000       31.92392000000000       40.76590999999999
O           43.12980000000000       33.15192000000000       40.62290999999999
N           42.71381000000000       31.37492000000000       41.89191000000000
H           42.64481000000000       30.36592000000000       41.91590000000000
C           42.45479999999999       32.26492000000000       42.95591000000000
H           43.03980000000000       33.07792000000000       42.85291000000000
C           40.96880000000000       32.73492000000000       42.94290999999999
H           40.43379999999999       32.03292000000000       43.40091000000000
C           40.79881000000000       34.02391999999999       43.73690000000000
H           41.41680999999999       34.01492000000000       44.52291000000000
H           41.01381000000000       34.80591999999999       43.15290000000000
H           39.85479999999999       34.09592000000000       44.05690000000000
C           40.42580000000000       32.95892000000000       41.53290999999999
H           40.33981000000000       33.93992000000000       41.36790000000000
H           41.05780000000000       32.55792000000000       40.87091000000000
H           39.53080000000000       32.52192000000000       41.45390999999999
C           42.81180999999999       31.59592000000000       44.23991000000000
O           42.43580999999999       30.47092000000000       44.46589999999999
N           43.49580000000000       32.31792000000000       45.08290000000000
H           43.74980999999999       33.27392000000000       44.73690000000000
C           43.86280000000000       31.82592000000000       46.37791000000000
H           43.31580000000000       31.00491999999999       46.58490000000000
C           45.34480000000000       31.57092000000000       46.45090000000000
H           45.84380000000000       32.46292000000000       46.38290000000000
C           45.55581000000000       30.86392000000000       47.75889999999999
H           45.85880000000000       31.51492000000000       48.46391000000000
H           44.69981000000000       30.43392000000000       48.06690999999999
H           46.25680999999999       30.14892000000000       47.66090000000000
O           45.72281000000000       30.76592000000000       45.36591000000000
H           44.91479999999999       30.36192000000000       44.91291000000000
C           43.57180000000000       32.86792000000000       47.43391000000000
O           43.80381000000000       34.06492000000000       47.21690000000000
314
 energy: -513.180086983555 gnorm: 0.526269067079 xtb: 6.6.1 (8d0f1dd)
N           39.43898275963184       27.28784354790810       37.74841071689162
H           40.28813401995234       27.89317603409456       37.52801802564140
C           38.25098439502119       27.38634787842625       36.94326725644283
H           37.61320675839151       26.61002979387239       37.18951166465216
C           37.52238671988415       28.75385438996907       36.95487223119716
H           38.22608546256100       29.46664515988001       36.73632763037778
H           36.78225145447051       28.72838269687875       36.24350135787114
C           36.89207594585751       29.08893604451350       38.27944315492363
H           37.43874204434661       28.64473546586998       39.03942048579754
C           36.88512155692118       30.59700550674281       38.51570359674898
H           36.34013664164893       31.06479708429831       37.77319170196979
H           36.45789912995116       30.80218759442127       39.43356947210876
H           37.85008696324452       30.95737142653414       38.50942453995827
C           35.50402894469417       28.48473491516292       38.33853373908461
H           35.56647251561167       27.45886772750153       38.22774642612625
H           35.06764459643414       28.70270119412048       39.25000762242938
H           34.92188865402338       28.87657883364507       37.57946907628788
C           38.67360605485062       27.23308873860621       35.48951273627956
O           39.61407597118291       27.81760145872452       35.02771423397177
C           37.26718097016239       39.30365887328148       40.68635086760862
C           38.48408499073432       39.81296878174585       40.35468866627978
C           39.18067794283508       39.38709976101524       39.17746863864960
C           36.58387669792015       38.31326184943685       39.92183847278140
C           37.26324125471315       37.88675579088542       38.74133735907314
C           38.48909050618659       38.38491777305026       38.38142671217484
C           35.31322026340483       37.78933896389183       40.27376547481583
C           34.41686663823452       36.87273020803290       39.69429104369580
C           33.10270947478249       36.51212091170735       40.31917057976125
H           36.76623155019931       39.65933306930313       41.58139442848275
H           38.96671043385935       40.55841863849633       40.98071142642079
H           38.98443044643344       38.03360624086055       37.47790717320488
H           36.77578579479193       37.16061610800437       38.10235167238644
H           34.91968953799987       38.14186862998839       41.22707792997735
O           40.30586628633366       39.83311282787809       38.87167096765820
O           32.52959290767748       36.87126994001967       41.34752307940218
N           34.53852123560015       36.12053344932543       38.51883278861545
N           32.53227528906724       35.55566688479928       39.46458602224195
C           33.47352271150126       35.34351927665598       38.40964897723559
C           31.23274678107727       34.95812556223490       39.69621999388644
C           33.17471475419129       34.45117590878747       37.23274535916686
H           30.57766554510058       35.74122661848068       40.09257841653456
H           30.80197674757364       34.61956636499393       38.74883607150286
C           31.15503326071270       33.83422661357655       40.75482313102797
O           30.40309534301082       33.83438594645901       41.71292055394212
N           32.34829556842560       35.26480305585607       36.35219722256701
H           32.68089043750395       36.20541042660975       36.15803541825721
H           32.49396510177149       33.65940066935655       37.56769724726789
C           34.44356602864903       33.99006792214180       36.40364011766570
C           35.33230409698024       35.15850086951590       36.02670396900787
H           36.14934204698423       34.80249436307567       35.40337565569855
H           35.76609246276166       35.61935146097661       36.91782356403279
H           34.78690059006486       35.91968077285435       35.46974801834074
H           34.06929357250358       33.29921517654914       35.63997244162986
O           35.23743961305851       33.02604753741044       37.01924127833573
H           35.68910864157406       33.46344239160196       37.75158718066890
N           43.30339915917801       40.25368050139532       30.47612874286430
H           44.15682242134214       39.73203931896418       30.22727932748390
C           42.92838303564761       40.50816958955118       31.84101885439884
H           42.45618823516891       41.44875299596146       31.87399550586861
C           41.87426870009454       39.50781048206343       32.31884949599895
H           41.45779458743591       39.06527114064304       31.48402692545333
H           42.35340044095049       38.79225777127081       32.88958388389088
C           40.77833045150554       40.12299270715388       33.13213155173572
C           39.65372517032817       40.63347850565955       32.50102465966192
H           39.63292806471966       40.66882897397269       31.46320182122473
C           38.55459184544436       41.09833012417206       33.20366262786005
H           37.72227104173995       41.44148459967339       32.70262431201642
C           38.58192211846897       41.09497921025008       34.58955679099655