314
 energy: -511.612753182505 gnorm: 1.067734998049 xtb: 6.6.1 (8d0f1dd)
N           37.57906000000000       27.11592000000000       35.95816000000000
H           38.50406000000000       27.54092000000000       35.58515999999999
C           36.29905000000000       27.42992000000000       35.29416000000000
H           35.60706000000000       26.80892000000000       35.63916000000000
C           35.86804999999999       28.92192000000000       35.35815000000000
H           36.63105000000000       29.45592000000000       35.04116000000000
H           35.07905999999999       29.01892000000000       34.78115000000000
C           35.50906000000000       29.37092000000000       36.74715000000000
H           36.03806000000000       28.85192000000000       37.42115000000000
C           35.81605999999999       30.86692000000000       36.93315999999999
H           35.28405000000000       31.39292000000000       36.27316000000000
H           35.56904999999999       31.13792000000000       37.86116000000000
H           36.79004999999999       31.02092000000000       36.78314999999999
C           34.04305000000000       29.04092000000000       37.01115000000000
H           33.90405000000000       28.05392000000000       36.92815000000000
H           33.79605000000000       29.33692000000000       37.93415000000000
H           33.47005000000000       29.51592000000000       36.34314999999999
C           36.48505000000000       27.18392000000000       33.80516000000000
O           37.49506000000000       27.58492000000000       33.21115000000000
C           38.11605000000000       39.34892000000000       38.72916000000000
C           39.34906000000000       39.61392000000000       38.22416000000000
C           39.78905000000000       39.05692000000000       36.98116000000000
C           37.15805000000000       38.50192000000000       38.10616000000000
C           37.57404999999999       37.93991999999999       36.85814999999999
C           38.81705000000000       38.19291999999999       36.31715000000000
C           35.87405000000000       38.23192000000000       38.63515000000000
C           34.75005000000000       37.49592000000000       38.21016000000000
C           33.48605000000000       37.40092000000000       39.02116000000000
H           37.81221000000000       39.79956000000000       39.67323000000000
H           40.04210999999999       40.26009000000000       38.75787999999999
H           39.10678000000000       37.74612000000000       35.36784999999999
H           36.87490000000000       37.31770000000000       36.30994000000000
H           35.68343000000000       38.65637000000000       39.62108000000000
O           40.91405000000000       39.27892000000000       36.51516000000000
O           33.13105000000000       37.86391999999999       40.10316000000000
N           34.57306000000000       36.72192000000000       37.04415999999999
N           32.63205000000000       36.56191999999999       38.28616000000000
C           33.36406000000000       36.15892000000000       37.11216000000000
C           31.28905000000000       36.22092000000000       38.70016000000000
C           32.74805000000000       35.31892000000000       36.02615000000000
H           30.85392000000000       37.11435000000000       39.15617000000000
H           30.67583000000000       35.97002000000000       37.83114000000000
C           31.15306000000000       35.13292000000000       39.79216000000000
O           30.53905000000000       35.29692000000000       40.87016000000000
N           31.98205000000000       36.28492000000000       35.22515000000000
H           32.44269000000000       37.14711000000000       34.95953000000000
H           31.97646000000000       34.69517000000000       36.47649000000000
C           33.78505000000000       34.63892000000000       35.04116000000000
C           34.81904999999999       35.60491999999999       34.52016000000000
H           35.45665000000000       35.09050000000000       33.79370000000000
H           35.44926000000000       35.98861000000000       35.32732000000000
H           34.35033000000000       36.45406999999999       34.01065000000000
H           33.18950000000000       34.00492000000000       34.37666999999999
O           34.45305000000000       33.54692000000000       35.56516000000000
H           35.07456999999999       33.89274000000000       36.22952000000000
N           42.76606000000000       39.04392000000000       27.78716000000000
H           43.46205999999999       38.36692000000000       27.42516000000000
C           42.62006000000000       39.38992000000000       29.18715000000000
H           42.35706000000000       40.37592000000000       29.24716000000000
C           41.48705000000000       38.59292000000000       29.81915000000000
H           40.90305000000000       38.24892000000000       29.09315000000000
H           41.88204999999999       37.84092000000000       30.33416000000000
C           40.65105000000000       39.41992000000000       30.75315000000000
C           39.56005000000000       40.13092000000000       30.25616000000000
H           39.40704999999999       40.16092000000000       29.25816000000000
C           38.66306000000000       40.80891999999999       31.08716000000000
H           37.88005000000000       41.28292000000000       30.70415000000000
C           38.89005000000000       40.80292000000000       32.46016000000000
O           38.05405000000000       41.55991999999999       33.24715000000000
H           37.38305000000000       42.01892000000000       32.66716000000000
C           40.00504999999999       40.12792000000000       32.97715000000000
H           40.18705000000000       40.15892000000000       33.96214999999999
C           40.86406000000000       39.41391999999999       32.13216000000000
H           41.62006000000000       38.90592000000000       32.51616000000000
C           43.88205000000000       39.19492000000000       30.02216000000000
O           44.59805000000000       38.18492000000000       29.91016000000000
N           44.13705000000000       40.18592000000000       30.88116000000000
H           43.44505000000000       40.96391999999999       30.85216000000000
C           45.27605000000000       40.15091999999999       31.75616000000000
H           45.99305000000000       39.60692000000000       31.30416000000000
C           45.69905000000000       41.57092000000000       32.05215000000000
H           44.89505000000000       42.12092000000000       32.20116000000000
H           46.29506000000000       41.57092000000000       32.83715000000000
C           46.45405999999999       42.12591999999999       30.87016000000000
O           47.32004999999999       41.43992000000000       30.30016000000000
N           46.07705000000000       43.33592000000000       30.44516000000000
H           46.53605000000000       43.75391999999999       29.66315000000000
H           45.33805000000000       43.81791999999999       30.91216000000000
C           44.93005000000000       39.43392000000000       33.04916000000000
O           43.74904999999999       39.16391999999999       33.32616000000000
N           45.97304999999999       39.13592000000000       33.82016000000000
H           46.89906000000000       39.42092000000000       33.40815000000000
C           45.85606000000000       38.47892000000000       35.11116000000000
H           44.99805000000000       37.96992000000000       35.12016000000000
C           47.13104999999999       37.69992000000000       35.39315000000000
H           47.10006000000000       37.37892000000000       36.31916000000000
H           47.89705000000000       38.28491999999999       35.22015000000000
S           47.22205000000000       36.29392000000000       34.29916000000000
C           45.80806000000000       39.53992000000000       36.13715000000000
O           46.51405000000000       40.48091999999999       35.92815000000000
N           45.00406000000000       39.40192000000000       37.20215999999999
H           44.46906000000000       38.51492000000000       37.23116000000000
C           44.89806000000000       40.44392000000000       38.24815000000000
H           45.71006000000000       41.04191999999999       38.16016000000000
C           43.69006000000000       41.37592000000000       38.11415000000000
H           42.88005000000000       40.91092000000000       38.47916000000000
H           43.86005000000000       42.20592000000000       38.65115000000000
C           43.41804999999999       41.76992000000000       36.70414999999999
N           42.77105000000000       40.91792000000000       35.81615000000000
H           42.43805000000000       40.01692000000000       36.01616000000000
C           42.69205000000000       41.55792000000000       34.65615000000000
H           42.26606000000000       41.19792000000000       33.82315000000000
N           43.26805000000000       42.76292000000000       34.75415000000000
C           43.69505000000000       42.93492000000000       36.04816000000000
H           44.12006000000000       43.74092000000000       36.43315999999999
C           44.86104999999999       39.85992000000000       39.62115000000000
O           44.98604999999999       38.63792000000000       39.78415999999999
N           44.75605000000000       40.77891999999999       40.57314999999999
H           44.75306000000000       41.76992000000000       40.20316000000000
C           44.65405000000000       40.47592000000000       41.98616000000000
H           44.56805000000000       39.48292000000000       42.07415000000000
C           45.76305000000000       41.08792000000000       42.84616000000000
H           45.61104999999999       42.09391999999999       42.87315000000000
H           45.63605000000000       40.74792000000000       43.79715999999999
C           47.17405000000000       40.82792000000000       42.42715000000000
O           47.94504999999999       41.77692000000000       42.29816000000000
N           47.52204999999999       39.57091999999999       42.29216000000000
H           48.45905000000000       39.32892000000000       42.01815000000000
H           46.86005000000000       38.83491999999999       42.45916000000000
C           43.37706000000000       41.08492000000000       42.52116000000000
O           43.26505000000000       42.30692000000000       42.58416000000000
N           42.84406000000000       45.96992000000000       33.75315000000000
H           43.01205000000000       44.99092000000000       34.08814999999999
C           43.64505000000000       46.61392000000000       32.75016000000000
H           43.43306000000000       47.59191999999999       32.73816000000000
C           45.09406000000000       46.25392000000000       32.92416000000000
H           45.20705000000000       45.27191999999999       32.75515000000000
H           45.63805000000000       46.76592000000000       32.25515000000000
C           45.67105000000000       46.54892000000000       34.30315000000000
H           45.05906000000000       47.16192000000000       34.79615000000000
H           45.78005999999999       45.69691999999999       34.80816000000000
C           47.04205000000000       47.22192000000000       34.21416000000000
H           47.64704999999999       46.60591999999999       33.71915000000000
H           46.92605999999999       48.07092000000000       33.70716000000000
N           47.58105000000000       47.49791999999999       35.52116000000000
H           47.05105999999999       47.24292000000000       36.32914999999999
C           48.76304999999999       48.08092000000000       35.70415000000000
N           49.61306000000000       48.27092000000000       34.70515000000000
H           49.36205000000000       47.98892000000000       33.77716000000000
H           50.50206000000000       48.69492000000000       34.87516000000000
N           49.12304999999999       48.43791999999999       36.93916000000000
H           48.50306000000000       48.28492000000000       37.70614999999999
H           50.01706000000000       48.85992000000000       37.09315000000000
C           43.28706000000000       46.01692000000000       31.43015000000000
O           43.84705000000000       45.01892000000000       31.10216000000000
N           44.30505000000000       35.64292000000000       42.93315999999999
H           44.27705000000000       34.81892000000000       43.63715000000000
C           45.19806000000000       35.62592000000000       41.80815999999999
H           45.45005000000000       36.55692000000000       41.58416000000000
C           46.37206000000000       34.69992000000000       42.16116000000000
H           46.44006000000000       34.63692000000000       43.15814999999999
H           46.18505000000000       33.79092000000000       41.78516000000000
O           47.61005000000000       35.16392000000000       41.64415000000000
H           47.67904999999999       36.15092000000000       41.78315000000000
C           44.39206000000000       35.06892000000000       40.64715999999999
O           44.12105999999999       33.85892000000000       40.57015999999999
N           44.00306000000000       35.97492000000000       39.77215999999999
H           44.40905000000000       36.92291999999999       39.91116000000000
C           43.08006000000000       35.64692000000000       38.70916000000000
H           42.74905000000000       34.68592000000000       38.85316000000000
C           41.78106000000000       36.51892000000000       38.82716000000000
H           42.00305999999999       37.46492000000000       38.48215000000000
C           40.66705000000000       36.01692000000000       37.91315000000000
H           41.06005000000000       35.67392000000000       37.05815999999999
H           40.16605000000000       35.27691999999999       38.36614999999999
H           40.03404999999999       36.76591999999999       37.70816000000000
O           41.30105999999999       36.62892000000000       40.16816000000000
H           42.03106000000000       36.95892000000000       40.77716000000000
C           43.64905999999999       35.73692000000000       37.29916000000000
O           44.18905000000000       36.77092000000000       36.89116000000000
N           43.45705000000000       34.63591999999999       36.56316000000000
H           43.05305000000000       33.83292000000000       37.10616000000000
C           43.77605000000000       34.55892000000000       35.15316000000000
H           43.98005000000000       35.48592000000000       34.81915999999999
C           45.14005000000000       33.97791999999999       34.67916000000000
H           45.57405000000000       34.68492000000000       34.09515000000000
H           44.93105000000000       33.18492000000000       34.08315999999999
S           46.33404999999999       33.45692000000000       35.93616000000000
C           42.58805000000000       34.02692000000000       34.36515000000000
O           41.77406000000000       33.23892000000000       34.84916000000000
N           42.43905000000000       34.56392000000000       33.17115000000000
H           43.13904999999999       35.29292000000000       32.92815000000000
C           41.37705999999999       34.14692000000000       32.30016000000000
H           41.11805000000000       33.21392000000000       32.53616000000000
C           40.12605000000000       34.99892000000000       32.44516000000000
H           39.90904999999999       35.40892000000000       31.56215000000000
H           39.37105999999999       34.41792000000000       32.74316000000000
O           40.31305000000000       36.02891999999999       33.39516000000000
H           39.63605000000000       35.93792000000000       34.12516000000000
C           41.92505000000000       34.13892000000000       30.89416000000000
O           42.88405999999999       34.80891999999999       30.65416000000000
N           41.34406000000000       33.36692000000000       30.00816000000000
H           40.50705000000000       32.84392000000000       30.36815000000000
C           41.81705000000000       33.24592000000000       28.64816000000000
H           42.33505999999999       34.07292000000000       28.41516000000000
C           42.56606000000000       31.92992000000000       28.47416000000000
H           42.96906000000000       31.89392000000000       27.56016000000000
H           43.29005000000000       31.86492000000000       29.16016000000000
H           41.93004999999999       31.16692000000000       28.58716000000000
C           40.64205999999999       33.12692000000000       27.76616000000000
O           39.83104999999999       32.19792000000000       27.94516000000000
N           35.42006000000000       31.07892000000000       27.79216000000000
H           34.53905000000000       30.51692000000000       27.87515000000000
C           36.17904999999999       31.53392000000000       28.95216000000000
H           36.95406000000000       32.10892000000000       28.61716000000000
C           35.31506000000000       32.41192000000000       29.86016000000000
H           35.15606000000000       33.26292000000000       29.39416000000000
H           34.48206000000000       31.92592000000000       30.04616000000000
C           35.98605000000000       32.71892000000000       31.18115999999999
H           36.13605000000000       31.87592000000000       31.68015000000000
C           37.32005000000000       33.37492000000000       30.88515000000000
H           37.17305000000000       34.21992000000000       30.36815000000000
H           37.78805999999999       33.58992000000000       31.74416000000000
H           37.89005000000000       32.75292000000000       30.34516000000000
C           35.11805000000000       33.70092000000000       31.96916000000000
H           34.22104999999999       33.29092000000000       32.13416000000000
H           35.55906000000000       33.90492000000000       32.84216000000000
H           35.01006000000000       34.54392000000000       31.44216000000000
C           36.74105000000000       30.41792000000000       29.79916000000000
O           36.11305999999999       29.41192000000000       30.01616000000000
N           37.92405000000000       30.68292000000000       30.28616000000000
H           38.28605000000000       31.64992000000000       29.98416000000000
C           38.67805000000000       29.82392000000000       31.12016000000000
H           38.06805000000000       29.20592000000000       31.61115000000000
C           39.70805000000000       29.06292000000000       30.27316000000000
H           39.22805000000000       28.39192000000000       29.74816000000000
H           40.18605000000000       29.71492000000000       29.72515000000000
C           40.72205000000000       28.34191999999999       31.14416000000000
H           41.13705000000000       28.98492000000000       31.77216000000000
C           39.98405000000000       27.26292000000000       31.94516000000000
H           39.55405000000000       26.62092000000000       31.31316000000000
H           40.63805000000000       26.77892000000000       32.52415000000000
H           39.28605000000000       27.69492000000000       32.51316000000000
C           41.81705000000000       27.73192000000000       30.27916000000000
H           42.28106000000000       28.45592000000000       29.76715000000000
H           42.47904999999999       27.25992000000000       30.86216000000000
H           41.41206000000000       27.07892000000000       29.63916000000000
C           39.38305000000000       30.69692000000000       32.13615000000000
O           40.06704999999999       31.65192000000000       31.75816000000000
N           39.19806000000000       30.33592000000000       33.41616000000000
H           38.61406000000000       29.45292000000000       33.51115000000000
C           39.72104999999999       31.04592000000000       34.57415000000000
H           40.32905999999999       31.80492000000000       34.25716000000000
C           38.56405000000000       31.66292000000000       35.38614999999999
H           37.86905000000000       30.97992000000000       35.46716000000000
H           38.93005000000000       31.94391999999999       36.24815000000000
C           37.95905000000000       32.87392000000000       34.71314999999999
H           38.56606000000000       33.15992000000000       33.99715000000000
H           37.07105000000000       32.62492000000000       34.37516000000000
C           37.79406000000000       34.00691999999999       35.66615999999999
O           37.77305999999999       35.17092000000000       35.28616000000000
O           37.69605000000000       33.60092000000000       36.92616000000000
C           40.48305999999999       30.17192000000000       35.55315000000000
O           40.13905000000000       29.05292000000000       35.86016000000000
N           41.48905999999999       30.74992000000000       36.13615000000000
H           41.71405000000000       31.70492000000000       35.82015999999999
C           42.20805000000000       30.04392000000000       37.15714999999999
H           41.61804999999999       29.30992000000000       37.48215000000000
C           43.52705000000000       29.45392000000000       36.68616000000000
H           44.09605000000000       30.18092000000000       36.40015000000000
H           43.88405999999999       28.90792000000000       37.40015000000000
C           43.23705000000000       28.58592000000000       35.52016000000000
C           42.82605000000000       27.26192000000000       35.69815000000000
H           42.73004999999999       26.88892000000000       36.60814999999999
C           42.54805000000000       26.46092000000000       34.58916000000000
H           42.29905000000000       25.50292000000000       34.71314999999999
C           42.62605000000000       27.01992000000000       33.30816000000000
H           42.42105000000000       26.43692000000000       32.51015000000000
C           42.97705000000000       28.35392000000000       33.11316000000000
H           43.02205000000000       28.74891999999999       32.19715000000000
C           43.26805000000000       29.12892000000000       34.23415000000000
H           43.50406000000000       30.09592000000000       34.11615000000000
C           42.39305000000000       30.99892000000000       38.29116000000000
O           42.65304999999999       32.19392000000000       38.10115000000000
N           42.08905000000000       30.53892000000000       39.47315999999999
H           41.83606000000000       29.56192000000000       39.54014999999999
C           42.15004999999999       31.46992000000000       40.53215000000000
H           42.85806000000000       32.15592000000000       40.32516000000000
C           40.79105000000000       32.21392000000000       40.70016000000000
H           40.20105000000000       31.62991999999999       41.24815000000000
C           40.97506000000000       33.51792000000000       41.46616000000000
H           41.78605000000000       33.45192000000000       42.04716000000000
H           41.09005000000000       34.27092000000000       40.81915999999999
H           40.17005999999999       33.68692000000000       42.03516000000000
C           40.11104999999999       32.52492000000000       39.36816000000000
H           40.02605000000000       33.51492000000000       39.26715000000000
H           40.66505000000000       32.15492000000000       38.62416000000000
H           39.20506000000000       32.10392000000000       39.35715000000000
C           42.54705000000000       30.75592000000000       41.77816000000000
O           42.00206000000000       29.72492000000000       42.09116000000000
N           43.46305000000000       31.34191999999999       42.49815000000000
H           43.84206000000000       32.22992000000000       42.08915999999999
C           43.90606000000000       30.79992000000000       43.74916000000000
H           43.24905000000000       30.09892000000000       44.05516000000000
C           45.31005000000000       30.26792000000000       43.63316000000000
H           45.95305000000000       31.04792000000000       43.46815000000000
C           45.56105000000000       29.54492000000000       44.92415999999999
H           45.43605000000000       28.55392000000000       44.80116000000000
H           46.50105000000000       29.71192000000000       45.24216000000000
H           44.92204999999999       29.86192000000000       45.63316000000000
O           45.37706000000000       29.39692000000000       42.53516000000000
H           45.42606000000000       29.90992000000000       41.66515000000000
C           43.96205999999999       31.88692000000000       44.79816000000000
O           44.38305000000000       33.01492000000000       44.51215000000000
314
 energy: -512.104608997570 gnorm: 0.529461845671 xtb: 6.6.1 (8d0f1dd)
N           37.57106010178792       27.11427628055320       35.94301308323699
H           38.48030794345334       27.54270655951738       35.59053374573357
C           36.32274213727253       27.42968368706089       35.29975924239491
H           35.59066166836222       26.79120575397692       35.65519325046289
C           35.87273640734554       28.91217203300269       35.36240506001982
H           36.66131199840869       29.47556441125085       35.02820820014983
H           35.05015246264418       29.02184932635271       34.75752477779489
C           35.50446310266189       29.37110972902146       36.74668741510067
H           36.05724635665144       28.83741743309424       37.44225499732188
C           35.81190678115944       30.85508624077992       36.93055330203857
H           35.26619199333851       31.41032999004925       36.25152640907500
H           35.56007599982001       31.14443324311778       37.89002543096578
H           36.81711247130340       31.02501135474989       36.78394511537967
C           34.04888082578197       29.04285100019301       37.00987352689277
H           33.90112307143851       28.02290193118148       36.92575515759528
H           33.78938999425957       29.34675411149545       37.96338034698369
H           33.45192349479862       29.53227434518779       36.32192247340061
C           36.51018535075801       27.18870704793769       33.80962574959229
O           37.47263786027264       27.58397438177699       33.21054410391679
C           38.11271468503062       39.34844736576654       38.73336439549259
C           39.34543472298436       39.61407340115924       38.22723822539959
C           39.78346774739952       39.05392197341872       36.98076522550221
C           37.15562047085906       38.49898220491151       38.10001193459788
C           37.57596767588342       37.94165368567357       36.85382469815123
C           38.81238116229753       38.19345463322804       36.31801318179818
C           35.87105197745493       38.22955442911665       38.63589806575693
C           34.74887297974748       37.49426375640000       38.21022365658741
C           33.48631395099529       37.39690164754044       39.01960796619243
H           37.81294272272143       39.79940573566311       39.67340556460749
H           40.03938219657792       40.25906778743038       38.75701070409333
H           39.10511432826907       37.74766759511861       35.37089267122128
H           36.87810845343991       37.31732665513566       36.31103052208979
H           35.68340544716119       38.65794474186529       39.62007362387076
O           40.91398141474796       39.27578880716463       36.51501221262950
O           33.13480688259747       37.86507977384753       40.09917174621374
N           34.56492729827891       36.72549667680969       37.05748589290008
N           32.63559443700554       36.55877065549874       38.27906116790687
C           33.36702340532663       36.16287288908681       37.11589901579408
C           31.29256211960413       36.22069322588678       38.70173951799894
C           32.74862603566515       35.33325264483668       36.02147101696787
H           30.85618215127334       37.11677915332663       39.15720089586672
H           30.67853045510577       35.96526409783451       37.83219135696584
C           31.14781734179761       35.14900937233256       39.80453782633006
O           30.54399505718345       35.28892473398376       40.84932759449237
N           31.97918352680541       36.28303690216828       35.23465457269347
H           32.44879750471559       37.14166469200160       34.96198419894521
H           31.98382768920161       34.68929366618098       36.47056848816147
C           33.78349691673093       34.63313465661948       35.04536236356408
C           34.81480315379785       35.60868159866668       34.51595595835855
H           35.45608247109409       35.09766893328738       33.80117183905367
H           35.44555783594322       35.98526749947701       35.32459264059136
H           34.35024303462598       36.45463890538377       34.01063054950542
H           33.18367483648768       34.02072225893563       34.36409828387822
O           34.45712900725993       33.54193760416234       35.58080946487788
H           35.08052915335513       33.88929153548413       36.23322184076571
N           42.76314476693804       39.04884082679220       27.78822613983833
H           43.45794454316300       38.37046833063774       27.44206447910617
C           42.63297165542857       39.38218096709460       29.17632979519532
H           42.35260813750742       40.39516976056580       29.23967643056668
C           41.48401513328772       38.60213302585557       29.82573419862806
H           40.88315887886210       38.24014620297638       29.06873299045474
H           41.89596260170435       37.81517103633195       30.35220289850142
C           40.64592734628099       39.42176185735298       30.75504232903637
C           39.55991132652274       40.13200406379390       30.26284749891336
H           39.40298048981761       40.16126667910532       29.23658932780892
C           38.67503084898177       40.80271518717021       31.08865327482815
H           37.86084911924953       41.29478553216875       30.69203261964141
C           38.89025828552153       40.80647706524399       32.45932321189375