      -----------------------------------------------------------      
     |                   =====================                   |     
     |                           x T B                           |     
     |                   =====================                   |     
     |                         S. Grimme                         |     
     |          Mulliken Center for Theoretical Chemistry        |     
     |                    University of Bonn                     |     
      -----------------------------------------------------------      

   * xtb version 6.6.1 (8d0f1dd) compiled by 'conda@1efc2f54142f' on 2023-08-01

   xtb is free software: you can redistribute it and/or modify it under
   the terms of the GNU Lesser General Public License as published by
   the Free Software Foundation, either version 3 of the License, or
   (at your option) any later version.
   
   xtb is distributed in the hope that it will be useful,
   but WITHOUT ANY WARRANTY; without even the implied warranty of
   MERCHANTABILITY or FITNESS FOR A PARTICULAR PURPOSE.  See the
   GNU Lesser General Public License for more details.
   
   Cite this work as:
   * C. Bannwarth, E. Caldeweyher, S. Ehlert, A. Hansen, P. Pracht,
     J. Seibert, S. Spicher, S. Grimme, WIREs Comput. Mol. Sci., 2020, 11,
     e01493. DOI: 10.1002/wcms.1493
   
   for GFN2-xTB:
   * C. Bannwarth, S. Ehlert and S. Grimme., J. Chem. Theory Comput., 2019,
     15, 1652-1671. DOI: 10.1021/acs.jctc.8b01176
   for GFN1-xTB:
   * S. Grimme, C. Bannwarth, P. Shushkov, J. Chem. Theory Comput., 2017,
     13, 1989-2009. DOI: 10.1021/acs.jctc.7b00118
   for GFN0-xTB:
   * P. Pracht, E. Caldeweyher, S. Ehlert, S. Grimme, ChemRxiv, 2019, preprint.
     DOI: 10.26434/chemrxiv.8326202.v1
   for GFN-FF:
   * S. Spicher and S. Grimme, Angew. Chem. Int. Ed., 2020, 59, 15665-15673.
     DOI: 10.1002/anie.202004239
   
   for ALPB and GBSA implicit solvation:
   * S. Ehlert, M. Stahn, S. Spicher, S. Grimme, J. Chem. Theory Comput.,
     2021, 17, 4250-4261. DOI: 10.1021/acs.jctc.1c00471
   
   for DFT-D4:
   * E. Caldeweyher, C. Bannwarth and S. Grimme, J. Chem. Phys., 2017,
     147, 034112. DOI: 10.1063/1.4993215
   * E. Caldeweyher, S. Ehlert, A. Hansen, H. Neugebauer, S. Spicher,
     C. Bannwarth and S. Grimme, J. Chem. Phys., 2019, 150, 154122.
     DOI: 10.1063/1.5090222
   * E. Caldeweyher, J.-M. Mewes, S. Ehlert and S. Grimme, Phys. Chem. Chem. Phys.
     2020, 22, 8499-8512. DOI: 10.1039/D0CP00502A
   
   for sTDA-xTB:
   * S. Grimme and C. Bannwarth, J. Chem. Phys., 2016, 145, 054103.
     DOI: 10.1063/1.4959605
   
   in the mass-spec context:
   * V. Asgeirsson, C. Bauer and S. Grimme, Chem. Sci., 2017, 8, 4879.
     DOI: 10.1039/c7sc00601b
   * J. Koopman and S. Grimme, ACS Omega 2019, 4, 12, 15120-15133.
     DOI: 10.1021/acsomega.9b02011
   
   for metadynamics refer to:
   * S. Grimme, J. Chem. Theory Comput., 2019, 155, 2847-2862
     DOI: 10.1021/acs.jctc.9b00143
   
   for SPH calculations refer to:
   * S. Spicher and S. Grimme, J. Chem. Theory Comput., 2021, 17, 1701-1714
     DOI: 10.1021/acs.jctc.0c01306
   
   with help from (in alphabetical order)
   P. Atkinson, C. Bannwarth, F. Bohle, G. Brandenburg, E. Caldeweyher
   M. Checinski, S. Dohm, S. Ehlert, S. Ehrlich, I. Gerasimov, C. Hölzer
   A. Katbashev, J. Koopman, C. Lavigne, S. Lehtola, F. März, M. Müller,
   F. Musil, H. Neugebauer, J. Pisarek, C. Plett, P. Pracht, F. Pultar,
   J. Seibert, P. Shushkov, S. Spicher, M. Stahn, M. Steiner, T. Strunk,
   J. Stückrath, T. Rose, and J. Unsleber
   
 * started run on 2023/12/05 at 00:01:23.977     

           -------------------------------------------------
          |                Calculation Setup                |
           -------------------------------------------------

          program call               : xtb initial.xyz --opt loose --gfn 2 --alpb water --input opt.in
          coordinate file            : initial.xyz
          omp threads                :                    24

   ID    Z sym.   atoms
    1    7 N      1, 36, 37, 45, 56, 77, 86, 91, 101, 109, 113, 118, 127,
                  132, 145, 148, 151, 156, 167, 181, 191, 202, 212, 231, 250,
                  265, 285, 301
    2    1 H      2, 4, 6, 7, 9, 11-13, 15-17, 29-33, 41, 42, 46, 47, 50-53,
                  55, 57, 59, 61, 62, 65, 67, 70, 72, 74, 78, 80, 82, 83, 87,
                  88, 92, 94, 96, 97, 102, 104, 106, 107, 110, 112, 115, 119,
                  121, 123, 124, 128, 129, 133, 135, 137, 138, 140, 141, 143,
                  144, 146, 149, 150, 152, 153, 157, 159, 161, 162, 164, 168,
                  170, 172, 174-176, 178, 182, 184, 186, 187, 192, 194, 196,
                  197, 199, 203, 205, 207-209, 213, 215, 217, 218, 220,
                  222-224, 226-228, 232, 234, 236, 237, 239, 241-243,
                  245-247, 251, 253, 255, 256, 258, 259, 266, 268, 270, 271,
                  274, 276, 278, 280, 282, 286, 288, 290, 292-294, 296-298,
                  302, 304, 306, 308-310, 312
    3    6 C      3, 5, 8, 10, 14, 18, 20-28, 38-40, 43, 48, 49, 58, 60, 63,
                  64, 66, 68, 71, 73, 75, 79, 81, 84, 89, 93, 95, 99, 103,
                  105, 108, 111, 114, 116, 120, 122, 125, 130, 134, 136, 139,
                  142, 147, 154, 158, 160, 165, 169, 171, 173, 179, 183, 185,
                  189, 193, 195, 200, 204, 206, 210, 214, 216, 219, 221, 225,
                  229, 233, 235, 238, 240, 244, 248, 252, 254, 257, 260, 263,
                  267, 269, 272, 273, 275, 277, 279, 281, 283, 287, 289, 291,
                  295, 299, 303, 305, 307, 313
    4    8 O      19, 34, 35, 44, 54, 69, 76, 85, 90, 100, 117, 126, 131,
                  155, 163, 166, 177, 180, 190, 198, 201, 211, 230, 249, 261,
                  262, 264, 284, 300, 311, 314
    5   16 S      98, 188
    6   29 Cu     315

molecular fragmentation (1/2 indicates fragments):
111111111111111111122222222222222222222222222222222222222222222222222222
222222222222222222222222222222222222222222222222222222222222222222222222
222222222222222222222222222222222222222222222222222222222222222222222222
222222222222222222222222222222222222222222222222222222222222222222222222
222222222222222222222222222
# atoms in fragment 1/2:    19   296
 fragment masses (1/2) :      113.16     2301.99
CMA distance (Bohr)    :  18.113
constraining FC (au)   :  0.5000

           -------------------------------------------------
          |                 G F N 2 - x T B                 |
           -------------------------------------------------

        Reference                      10.1021/acs.jctc.8b01176
      * Hamiltonian:
        H0-scaling (s, p, d)           1.850000    2.230000    2.230000
        zeta-weighting                 0.500000
      * Dispersion:
        s8                             2.700000
        a1                             0.520000
        a2                             5.000000
        s9                             5.000000
      * Repulsion:
        kExp                           1.500000    1.000000
        rExp                           1.000000
      * Coulomb:
        alpha                          2.000000
        third order                    shell-resolved
        anisotropic                    true
        a3                             3.000000
        a5                             4.000000
        cn-shift                       1.200000
        cn-exp                         4.000000
        max-rad                        5.000000

      * Solvation model:               ALPB
        Solvent                        water
        Parameter file                 internal GFN2-xTB/ALPB
        Dielectric constant                8.0200E+01
        Reference state                gsolv [1 M gas/solution]
        Free energy shift                  1.0808E-03 Eh       6.7819E-01 kcal/mol
        Temperature                        2.9815E+02 K
        Density                            1.0000E+00 kg/L
        Solvent mass                       1.8000E+01 g/mol
        Interaction kernel             P16
        Born radius scaling (c1)           1.4744E+00
        Born radii integrator          GBOBC
        Born offset                        0.0000E+00 a0       0.0000E+00 AA
        H-bond correction              true
        Ion screening                  false
        Surface tension                    1.0000E-05 Eh       1.5569E+01 dyn/cm
        Grid points                               230 per atom

          ...................................................
          :                      SETUP                      :
          :.................................................:
          :  # basis functions                 831          :
          :  # atomic orbitals                 828          :
          :  # shells                          484          :
          :  # electrons                       916          :
          :  max. iterations                   250          :
          :  Hamiltonian                  GFN2-xTB          :
          :  restarted?                      false          :
          :  GBSA solvation                   true          :
          :  PC potential                    false          :
          :  electronic temp.          300.0000000     K    :
          :  accuracy                    1.0000000          :
          :  -> integral cutoff          0.2500000E+02      :
          :  -> integral neglect         0.1000000E-07      :
          :  -> SCF convergence          0.1000000E-05 Eh   :
          :  -> wf. convergence          0.1000000E-03 e    :
          :  Broyden damping             0.4000000          :
          ...................................................

 iter      E             dE          RMSdq      gap      omega  full diag
   1   -520.9840056 -0.520984E+03  0.469E+00    0.87       0.0  T
   2   -514.1267736  0.685723E+01  0.525E+00    0.02       1.0  T
   3   -521.8281807 -0.770141E+01  0.278E+00    0.88       1.0  T
   4   -522.0855462 -0.257366E+00  0.244E+00    0.01       1.0  T
   5   -522.2639535 -0.178407E+00  0.176E+00    0.21       1.0  T
   6   -521.7848594  0.479094E+00  0.293E+00    0.19       1.0  T
   7   -521.9158853 -0.131026E+00  0.283E+00    0.10       1.0  T
   8   -521.7891834  0.126702E+00  0.286E+00    0.22       1.0  T
   9   -522.4704639 -0.681281E+00  0.157E+00    0.02       1.0  T
  10   -522.4117708  0.586932E-01  0.166E+00    0.01       1.0  T
  11   -522.4470260 -0.352552E-01  0.154E+00    0.08       1.0  T
  12   -522.7477113 -0.300685E+00  0.120E+00    0.04       1.0  T
  13   -522.2544000  0.493311E+00  0.180E+00    0.06       1.0  T
  14   -521.9206317  0.333768E+00  0.259E+00    0.11       1.0  T
  15   -521.7601019  0.160530E+00  0.280E+00    0.14       1.0  T
  16   -521.8787502 -0.118648E+00  0.275E+00    0.08       1.0  T
  17   -521.6374155  0.241335E+00  0.291E+00    0.09       1.0  T
  18   -521.7961556 -0.158740E+00  0.270E+00    0.00       1.0  T
  19   -522.4162425 -0.620087E+00  0.190E+00    0.01       1.0  T
  20   -522.4957245 -0.794820E-01  0.168E+00    0.03       1.0  T
  21   -522.4958264 -0.101928E-03  0.167E+00    0.03       1.0  T
  22   -522.3971796  0.986468E-01  0.174E+00    0.01       1.0  T
  23   -522.3604798  0.366998E-01  0.181E+00    0.02       1.0  T
  24   -522.3819087 -0.214289E-01  0.179E+00    0.01       1.0  T
  25   -522.3799075  0.200117E-02  0.180E+00    0.01       1.0  T
  26   -522.3757034  0.420414E-02  0.178E+00    0.00       1.0  T
  27   -522.3124223  0.632812E-01  0.188E+00    0.00       1.0  T
  28   -522.4842453 -0.171823E+00  0.172E+00    0.01       1.0  T
  29   -522.5730632 -0.888178E-01  0.152E+00    0.03       1.0  T
  30   -522.5633106  0.975258E-02  0.193E+00    0.01       1.0  T
  31   -522.6508426 -0.875320E-01  0.176E+00    0.02       1.0  T
  32   -522.7459223 -0.950797E-01  0.121E+00    0.01       1.0  T
  33   -522.8136766 -0.677542E-01  0.960E-01    0.04       1.0  T
  34   -522.8989230 -0.852464E-01  0.838E-01    0.01       1.0  T
  35   -522.9131835 -0.142605E-01  0.862E-01    0.00       1.0  T
  36   -522.9245093 -0.113258E-01  0.888E-01    0.00       1.0  T
  37   -522.7805190  0.143990E+00  0.104E+00    0.03       1.0  T
  38   -522.9495213 -0.169002E+00  0.731E-01    0.01       1.0  T
  39   -522.9673699 -0.178486E-01  0.687E-01    0.01       1.0  T
  40   -523.0128844 -0.455145E-01  0.600E-01    0.02       1.0  T
  41   -523.0135696 -0.685226E-03  0.561E-01    0.01       1.0  T
  42   -523.0525380 -0.389684E-01  0.452E-01    0.02       1.0  T
  43   -523.0751074 -0.225694E-01  0.385E-01    0.00       1.0  T
  44   -523.0900010 -0.148936E-01  0.323E-01    0.02       1.0  T
  45   -523.0907328 -0.731804E-03  0.316E-01    0.01       1.0  T
  46   -523.1115162 -0.207834E-01  0.185E-01    0.01       1.0  T
  47   -523.1204111 -0.889494E-02  0.983E-02    0.01       1.0  T
  48   -523.1159054  0.450569E-02  0.150E-01    0.01       1.0  T
  49   -523.1196759 -0.377049E-02  0.103E-01    0.01       1.0  T
  50   -523.1225097 -0.283378E-02  0.466E-02    0.01       1.0  T
  51   -523.1227755 -0.265785E-03  0.334E-02    0.01       1.0  T
  52   -523.1225676  0.207891E-03  0.395E-02    0.01       1.0  T
  53   -523.1228915 -0.323886E-03  0.237E-02    0.02       1.0  T
  54   -523.1229092 -0.177767E-04  0.209E-02    0.02       1.0  T
  55   -523.1229618 -0.526138E-04  0.144E-02    0.02       1.0  T
  56   -523.1229878 -0.259100E-04  0.961E-03    0.02       1.0  T
  57   -523.1229996 -0.118546E-04  0.665E-03    0.02       1.0  T
  58   -523.1230055 -0.585385E-05  0.369E-03    0.02       1.5  T
  59   -523.1230073 -0.183861E-05  0.183E-03    0.02       3.1  T
  60   -523.1230076 -0.267616E-06  0.136E-03    0.02       4.2  T
  61   -523.1230066  0.980300E-06  0.212E-03    0.02       2.7  T
  62   -523.1230077 -0.113434E-05  0.106E-03    0.02       5.3  T
  63   -523.1230081 -0.328857E-06  0.299E-04    0.02      18.8  T
  64   -523.1230080  0.238789E-07  0.370E-04    0.02      15.2  T

   *** convergence criteria satisfied after 64 iterations ***

         #    Occupation            Energy/Eh            Energy/eV
      -------------------------------------------------------------
         1        2.0000           -0.7817959             -21.2738
       ...           ...                  ...                  ...
       452        1.9773           -0.3494315              -9.5085
       453        1.7591           -0.3470785              -9.4445
       454        1.5520           -0.3463700              -9.4252
       455        1.3742           -0.3459367              -9.4134
       456        1.3194           -0.3458184              -9.4102
       457        1.2712           -0.3457179              -9.4075
       458        1.2610           -0.3456972              -9.4069 (HOMO)
       459        0.9647           -0.3451225              -9.3913 (LUMO)
       460        0.9321           -0.3450603              -9.3896
       461        0.8545           -0.3449110              -9.3855
       462        0.7343           -0.3446723              -9.3790
       463                         -0.3272335              -8.9045
       ...                                ...                  ...
       828                          0.7199859              19.5918
      -------------------------------------------------------------
                  HL-Gap            0.0005747 Eh            0.0156 eV
             Fermi-level           -0.3451895 Eh           -9.3931 eV

 SCC (total)                   0 d,  0 h,  0 min, 15.114 sec
 SCC setup                      ...        0 min,  0.120 sec (  0.793%)
 Dispersion                     ...        0 min,  0.020 sec (  0.134%)
 classical contributions        ...        0 min,  0.040 sec (  0.264%)
 integral evaluation            ...        0 min,  0.061 sec (  0.405%)
 iterations                     ...        0 min, 14.472 sec ( 95.754%)
 molecular gradient             ...        0 min,  0.381 sec (  2.523%)
 printout                       ...        0 min,  0.019 sec (  0.126%)

         :::::::::::::::::::::::::::::::::::::::::::::::::::::
         ::                     SUMMARY                     ::
         :::::::::::::::::::::::::::::::::::::::::::::::::::::
         :: total energy            -517.090027092193 Eh    ::
         :: total w/o Gsasa/hb      -517.037515823184 Eh    ::
         :: gradient norm              0.145956872680 Eh/a0 ::
         :: HOMO-LUMO gap              0.015639719621 eV    ::
         ::.................................................::
         :: SCC energy              -523.123008033267 Eh    ::
         :: -> isotropic ES            2.019356885888 Eh    ::
         :: -> anisotropic ES         -0.132919082809 Eh    ::
         :: -> anisotropic XC          0.182265726364 Eh    ::
         :: -> dispersion             -0.433737634493 Eh    ::
         :: -> Gsolv                  -0.781558474572 Eh    ::
         ::    -> Gelec               -0.729047205562 Eh    ::
         ::    -> Gsasa                0.000015057818 Eh    ::
         ::    -> Ghb                 -0.053607086525 Eh    ::
         ::    -> Gshift               0.001080759698 Eh    ::
         :: repulsion energy           5.997631557523 Eh    ::
         :: add. restraining           0.000000000000 Eh    ::
         :: total charge              -2.000000000000 e     ::
         :::::::::::::::::::::::::::::::::::::::::::::::::::::

      ----------------------------------------------------------- 
     |                   =====================                   |
     |                        A N C O P T                        |
     |                   =====================                   |
     |               Approximate Normal Coordinate               |
     |                Rational Function Optimizer                |
      ----------------------------------------------------------- 

          ...................................................
          :                      SETUP                      :
          :.................................................:
          :   optimization level             loose          :
          :   max. optcycles                   630          :
          :   ANC micro-cycles                  20          :
          :   degrees of freedom               939          :
          :.................................................:
          :   RF solver                   davidson          :
          :   write xtbopt.log                true          :
          :   linear?                        false          :
          :   energy convergence         0.5000000E-04 Eh   :
          :   grad. convergence          0.4000000E-02 Eh/α :
          :   maxmium RF displ.          1.0000000          :
          :   Hlow (freq-cutoff)         0.1000000E-01      :
          :   Hmax (freq-cutoff)         5.0000000          :
          :   S6 in model hess.         20.0000000          :
          ...................................................

generating ANC from model Hessian ...
Using Lindh-Hessian (1995)
 Shifting diagonal of input Hessian by    1.0048399455474720E-002
 Lowest  eigenvalues of input Hessian
    0.010000    0.000000    0.000000    0.000000    0.000000    0.000000
    0.000000    0.010051    0.010392    0.017466    0.018455    0.018477
    0.018749    0.018769    0.019142    0.019581    0.019625    0.019654
 Highest eigenvalues
    2.831537    2.832522    2.849401    2.860929    2.876790    3.043967


........................................................................
.............................. CYCLE    1 ..............................
........................................................................

 iter      E             dE          RMSdq      gap      omega  full diag
   1   -523.1230081 -0.523123E+03  0.111E-04    0.02       0.0  T
   2   -523.1230023  0.575815E-05  0.410E-03    0.02       1.4  T
   3   -523.1230080 -0.568012E-05  0.576E-04    0.02       9.8  T
   4   -523.1230081 -0.703276E-07  0.192E-04    0.02      29.4  T
   5   -523.1230080  0.957195E-07  0.545E-04    0.02      10.3  T
     SCC iter.                  ...        0 min,  1.340 sec
     gradient                   ...        0 min,  0.356 sec
 * total energy  :  -517.0900270 Eh     change        0.6379491E-07 Eh
   gradient norm :     0.1459332 Eh/α   predicted     0.0000000E+00 (-100.00%)
   displ. norm   :     0.2969800 α      lambda       -0.2835837E-01
   maximum displ.:     0.0644483 α      in ANC's #3, #493, #495, ...

........................................................................
.............................. CYCLE    2 ..............................
........................................................................

 iter      E             dE          RMSdq      gap      omega  full diag
   1   -522.9174762 -0.522917E+03  0.861E-01    0.06       0.0  T
   2   -519.2048387  0.371264E+01  0.377E+00    0.12       1.0  T
   3   -521.9876694 -0.278283E+01  0.196E+00    0.13       1.0  T
   4   -521.9528818  0.347876E-01  0.278E+00    0.05       1.0  T
   5   -522.7350811 -0.782199E+00  0.130E+00    0.00       1.0  T
   6   -522.7286532  0.642798E-02  0.114E+00    0.01       1.0  T
   7   -522.7713033 -0.426501E-01  0.108E+00    0.00       1.0  T
   8   -522.9114575 -0.140154E+00  0.866E-01    0.01       1.0  T
   9   -522.9609876 -0.495301E-01  0.775E-01    0.02       1.0  T
  10   -522.9265573  0.344302E-01  0.830E-01    0.03       1.0  T
  11   -522.9250893  0.146802E-02  0.835E-01    0.06       1.0  T
  12   -522.9222167  0.287259E-02  0.803E-01    0.00       1.0  T
  13   -523.0319949 -0.109778E+00  0.596E-01    0.02       1.0  T
  14   -523.0928292 -0.608343E-01  0.457E-01    0.00       1.0  T
  15   -523.1270415 -0.342123E-01  0.334E-01    0.01       1.0  T
  16   -523.1516924 -0.246509E-01  0.160E-01    0.03       1.0  T
  17   -523.1550546 -0.336222E-02  0.128E-01    0.01       1.0  T
  18   -523.1604524 -0.539776E-02  0.381E-02    0.01       1.0  T
  19   -523.1606816 -0.229222E-03  0.266E-02    0.02       1.0  T
  20   -523.1608619 -0.180308E-03  0.143E-02    0.02       1.0  T
  21   -523.1608986 -0.366482E-04  0.912E-03    0.02       1.0  T
  22   -523.1609126 -0.140188E-04  0.615E-03    0.02       1.0  T
  23   -523.1609153 -0.275481E-05  0.563E-03    0.02       1.0  T
  24   -523.1609220 -0.668458E-05  0.315E-03    0.02       1.8  T
  25   -523.1609240 -0.198708E-05  0.217E-03    0.02       2.6  T
  26   -523.1609250 -0.979651E-06  0.144E-03    0.02       3.9  T
  27   -523.1609254 -0.392841E-06  0.100E-03    0.02       5.6  T
  28   -523.1609256 -0.247841E-06  0.544E-04    0.02      10.4  T
  29   -523.1609257 -0.686828E-07  0.291E-04    0.02      19.3  T
     SCC iter.                  ...        0 min,  6.630 sec
     gradient                   ...        0 min,  0.415 sec
 * total energy  :  -517.1073052 Eh     change       -0.1727816E-01 Eh
   gradient norm :     0.0410619 Eh/α   predicted    -0.1543964E-01 ( -10.64%)
   displ. norm   :     0.2720497 α      lambda       -0.3702021E-02
   maximum displ.:     0.2030049 α      in ANC's #3, #35, #23, ...

........................................................................
.............................. CYCLE    3 ..............................
........................................................................

 iter      E             dE          RMSdq      gap      omega  full diag
   1   -523.0581659 -0.523058E+03  0.602E-01    0.05       0.0  T
   2   -520.2398312  0.281833E+01  0.308E+00    0.01       1.0  T
   3   -522.3317187 -0.209189E+01  0.194E+00    0.01       1.0  T
   4   -522.4776869 -0.145968E+00  0.147E+00    0.03       1.0  T
   5   -522.5150085 -0.373216E-01  0.160E+00    0.01       1.0  T
   6   -522.9720285 -0.457020E+00  0.786E-01    0.01       1.0  T
   7   -523.1123646 -0.140336E+00  0.448E-01    0.01       1.0  T
   8   -522.9247898  0.187575E+00  0.902E-01    0.00       1.0  T
   9   -523.1602914 -0.235502E+00  0.219E-01    0.01       1.0  T
  10   -523.1161843  0.441071E-01  0.419E-01    0.00       1.0  T
  11   -523.1481506 -0.319663E-01  0.292E-01    0.01       1.0  T
  12   -523.1716274 -0.234768E-01  0.141E-01    0.01       1.0  T
  13   -523.1283271  0.433003E-01  0.362E-01    0.00       1.0  T
  14   -523.1756453 -0.473182E-01  0.695E-02    0.02       1.0  T
  15   -523.1606602  0.149851E-01  0.213E-01    0.01       1.0  T
  16   -523.1765591 -0.158988E-01  0.347E-02    0.02       1.0  T
  17   -523.1767749 -0.215881E-03  0.217E-02    0.02       1.0  T
  18   -523.1768860 -0.111075E-03  0.884E-03    0.02       1.0  T
  19   -523.1768713  0.146729E-04  0.112E-02    0.02       1.0  T
  20   -523.1769067 -0.353938E-04  0.347E-03    0.02       1.6  T
  21   -523.1769043  0.243597E-05  0.417E-03    0.02       1.4  T
  22   -523.1769050 -0.673927E-06  0.416E-03    0.02       1.4  T
  23   -523.1769101 -0.509711E-05  0.113E-03    0.02       5.0  T
  24   -523.1769102 -0.141815E-06  0.701E-04    0.02       8.0  T
  25   -523.1769103 -0.517221E-07  0.516E-04    0.02      10.9  T
     SCC iter.                  ...        0 min,  5.970 sec
     gradient                   ...        0 min,  0.388 sec
 * total energy  :  -517.1097662 Eh     change       -0.2461020E-02 Eh
   gradient norm :     0.0135066 Eh/α   predicted    -0.1988448E-02 ( -19.20%)
   displ. norm   :     0.3863085 α      lambda       -0.1686962E-02
   maximum displ.:     0.3581632 α      in ANC's #3, #35, #23, ...

........................................................................
.............................. CYCLE    4 ..............................
........................................................................

 iter      E             dE          RMSdq      gap      omega  full diag
   1   -523.1261885 -0.523126E+03  0.427E-01    0.03       0.0  T
   2   -520.8514766  0.227471E+01  0.267E+00    0.05       1.0  T
   3   -522.3379845 -0.148651E+01  0.218E+00    0.01       1.0  T
   4   -522.6449193 -0.306935E+00  0.128E+00    0.04       1.0  T
   5   -522.8069515 -0.162032E+00  0.108E+00    0.01       1.0  T
   6   -522.9848129 -0.177861E+00  0.760E-01    0.01       1.0  T
   7   -523.0794644 -0.946515E-01  0.542E-01    0.01       1.0  T
   8   -523.1512802 -0.718158E-01  0.313E-01    0.01       1.0  T
   9   -523.1450098  0.627038E-02  0.335E-01    0.01       1.0  T
  10   -523.1627564 -0.177465E-01  0.267E-01    0.00       1.0  T
  11   -523.0992508  0.635055E-01  0.515E-01    0.01       1.0  T
  12   -523.1628435 -0.635927E-01  0.255E-01    0.01       1.0  T
  13   -523.1832759 -0.204324E-01  0.814E-02    0.01       1.0  T
  14   -523.1742600  0.901589E-02  0.175E-01    0.01       1.0  T
  15   -523.1833854 -0.912543E-02  0.659E-02    0.01       1.0  T
  16   -523.1849317 -0.154627E-02  0.164E-02    0.02       1.0  T
  17   -523.1841932  0.738503E-03  0.471E-02    0.02       1.0  T
  18   -523.1849229 -0.729682E-03  0.161E-02    0.02       1.0  T
  19   -523.1849815 -0.586127E-04  0.877E-03    0.02       1.0  T
  20   -523.1850072 -0.257677E-04  0.321E-03    0.02       1.8  T
  21   -523.1850071  0.158359E-06  0.329E-03    0.02       1.7  T
  22   -523.1850086 -0.149373E-05  0.233E-03    0.02       2.4  T
  23   -523.1850100 -0.140439E-05  0.101E-03    0.02       5.6  T
  24   -523.1850103 -0.338594E-06  0.371E-04    0.02      15.2  T
  25   -523.1850104 -0.493363E-07  0.961E-05    0.02      58.6  T
     SCC iter.                  ...        0 min,  6.188 sec
     gradient                   ...        0 min,  0.414 sec
 * total energy  :  -517.1112500 Eh     change       -0.1483829E-02 Eh
   gradient norm :     0.0120377 Eh/α   predicted    -0.9694111E-03 ( -34.67%)
   displ. norm   :     0.6600002 α      lambda       -0.2525374E-02
   maximum displ.:     0.6323938 α      in ANC's #3, #35, #23, ...

........................................................................
.............................. CYCLE    5 ..............................
........................................................................

 iter      E             dE          RMSdq      gap      omega  full diag
   1   -523.1217666 -0.523122E+03  0.478E-01    0.04       0.0  T
   2   -520.8185966  0.230317E+01  0.272E+00    0.06       1.0  T
   3   -522.2522140 -0.143362E+01  0.229E+00    0.01       1.0  T
   4   -522.6887466 -0.436533E+00  0.124E+00    0.02       1.0  T
   5   -522.5167566  0.171990E+00  0.142E+00    0.05       1.0  T
   6   -523.0596201 -0.542864E+00  0.669E-01    0.01       1.0  T
   7   -523.0682475 -0.862738E-02  0.607E-01    0.02       1.0  T
   8   -523.1493436 -0.810961E-01  0.363E-01    0.00       1.0  T
   9   -523.1201296  0.292140E-01  0.454E-01    0.01       1.0  T
  10   -523.1654439 -0.453143E-01  0.326E-01    0.01       1.0  T
  11   -523.0350189  0.130425E+00  0.668E-01    0.01       1.0  T
  12   -523.1752716 -0.140253E+00  0.230E-01    0.00       1.0  T
  13   -523.1802875 -0.501591E-02  0.200E-01    0.01       1.0  T
  14   -523.1729283  0.735920E-02  0.246E-01    0.01       1.0  T
  15   -523.1928643 -0.199360E-01  0.611E-02    0.02       1.0  T
  16   -523.1931875 -0.323181E-03  0.513E-02    0.02       1.0  T
  17   -523.1934949 -0.307415E-03  0.409E-02    0.02       1.0  T
  18   -523.1939196 -0.424724E-03  0.152E-02    0.02       1.0  T
  19   -523.1939753 -0.556511E-04  0.829E-03    0.02       1.0  T
  20   -523.1939838 -0.852376E-05  0.627E-03    0.02       1.0  T
  21   -523.1939889 -0.512570E-05  0.505E-03    0.02       1.1  T
  22   -523.1939958 -0.691172E-05  0.208E-03    0.02       2.7  T
  23   -523.1939969 -0.105689E-05  0.113E-03    0.02       5.0  T
  24   -523.1939970 -0.160031E-06  0.783E-04    0.02       7.2  T
  25   -523.1939972 -0.150287E-06  0.336E-04    0.02      16.8  T
     SCC iter.                  ...        0 min,  6.193 sec
     gradient                   ...        0 min,  0.371 sec
 * total energy  :  -517.1141564 Eh     change       -0.2906351E-02 Eh
   gradient norm :     0.0228472 Eh/α   predicted    -0.1812849E-02 ( -37.62%)
   displ. norm   :     0.7158242 α      lambda       -0.4130495E-02
   maximum displ.:     0.7010618 α      in ANC's #3, #35, #23, ...

........................................................................
.............................. CYCLE    6 ..............................
........................................................................

 iter      E             dE          RMSdq      gap      omega  full diag
   1   -523.1522404 -0.523152E+03  0.424E-01    0.03       0.0  T
   2   -520.9033792  0.224886E+01  0.268E+00    0.06       1.0  T
   3   -522.4182679 -0.151489E+01  0.193E+00    0.07       1.0  T
   4   -522.7017688 -0.283501E+00  0.124E+00    0.02       1.0  T
   5   -522.8637486 -0.161980E+00  0.101E+00    0.01       1.0  T
   6   -523.1024131 -0.238664E+00  0.615E-01    0.01       1.0  T
   7   -522.9866732  0.115740E+00  0.783E-01    0.03       1.0  T
   8   -523.1815757 -0.194902E+00  0.285E-01    0.02       1.0  T
   9   -523.0774906  0.104085E+00  0.590E-01    0.03       1.0  T
  10   -523.1597272 -0.822366E-01  0.364E-01    0.00       1.0  T
  11   -522.9219307  0.237797E+00  0.907E-01    0.00       1.0  T
  12   -523.1971688 -0.275238E+00  0.166E-01    0.01       1.0  T
  13   -523.1188148  0.783540E-01  0.487E-01    0.00       1.0  T
  14   -523.1703540 -0.515392E-01  0.324E-01    0.00       1.0  T
  15   -523.1969536 -0.265996E-01  0.169E-01    0.02       1.0  T
  16   -523.2021746 -0.522099E-02  0.112E-01    0.02       1.0  T
  17   -523.2039195 -0.174487E-02  0.622E-02    0.02       1.0  T
  18   -523.2047627 -0.843153E-03  0.384E-02    0.02       1.0  T
  19   -523.2051441 -0.381450E-03  0.120E-02    0.02       1.0  T
  20   -523.2050990  0.450605E-04  0.162E-02    0.02       1.0  T
  21   -523.2051804 -0.813150E-04  0.218E-03    0.02       2.6  T
  22   -523.2051812 -0.811814E-06  0.115E-03    0.02       4.9  T
  23   -523.2051813 -0.149660E-06  0.844E-04    0.02       6.7  T
  24   -523.2051815 -0.128386E-06  0.532E-04    0.02      10.6  T
     SCC iter.                  ...        0 min,  6.420 sec
     gradient                   ...        0 min,  0.389 sec
 * total energy  :  -517.1199038 Eh     change       -0.5747358E-02 Eh
   gradient norm :     0.0355336 Eh/α   predicted    -0.3123904E-02 ( -45.65%)
   displ. norm   :     0.8054710 α      lambda       -0.9108773E-02
   maximum displ.:     0.7969714 α      in ANC's #3, #35, #23, ...

........................................................................
.............................. CYCLE    7 ..............................
........................................................................

 iter      E             dE          RMSdq      gap      omega  full diag
   1   -523.1769016 -0.523177E+03  0.410E-01    0.03       0.0  T
   2   -520.8904482  0.228645E+01  0.270E+00    0.06       1.0  T
   3   -522.5836662 -0.169322E+01  0.173E+00    0.04       1.0  T
   4   -522.6902231 -0.106557E+00  0.128E+00    0.03       1.0  T
   5   -522.9065744 -0.216351E+00  0.965E-01    0.03       1.0  T
   6   -523.0588887 -0.152314E+00  0.727E-01    0.00       1.0  T
   7   -523.0775077 -0.186190E-01  0.649E-01    0.00       1.0  T
   8   -523.1530781 -0.755704E-01  0.457E-01    0.00       1.0  T
   9   -522.9471706  0.205907E+00  0.869E-01    0.01       1.0  T
  10   -523.1401853 -0.193015E+00  0.538E-01    0.00       1.0  T
  11   -522.9853552  0.154830E+00  0.809E-01    0.02       1.0  T
  12   -523.1578042 -0.172449E+00  0.441E-01    0.01       1.0  T
  13   -523.1884315 -0.306272E-01  0.325E-01    0.02       1.0  T
  14   -523.1820503  0.638118E-02  0.349E-01    0.01       1.0  T
  15   -523.2078132 -0.257629E-01  0.212E-01    0.01       1.0  T
  16   -523.2198167 -0.120035E-01  0.116E-01    0.02       1.0  T
  17   -523.2229580 -0.314136E-02  0.580E-02    0.02       1.0  T
  18   -523.2215251  0.143298E-02  0.813E-02    0.01       1.0  T
  19   -523.2229114 -0.138632E-02  0.450E-02    0.02       1.0  T
  20   -523.2233916 -0.480270E-03  0.202E-02    0.02       1.0  T
  21   -523.2235033 -0.111697E-03  0.686E-03    0.02       1.0  T
  22   -523.2234931  0.102830E-04  0.805E-03    0.02       1.0  T
  23   -523.2235122 -0.191544E-04  0.295E-03    0.02       1.9  T
  24   -523.2235141 -0.188498E-05  0.168E-03    0.02       3.4  T
  25   -523.2235147 -0.633692E-06  0.974E-04    0.02       5.8  T
  26   -523.2235150 -0.275189E-06  0.415E-04    0.02      13.6  T
     SCC iter.                  ...        0 min,  7.002 sec
     gradient                   ...        0 min,  0.312 sec
 * total energy  :  -517.1326326 Eh     change       -0.1272887E-01 Eh
   gradient norm :     0.0493076 Eh/α   predicted    -0.7509845E-02 ( -41.00%)
   displ. norm   :     0.8671433 α      lambda       -0.1831116E-01
   maximum displ.:     0.8621731 α      in ANC's #3, #35, #2, ...

........................................................................
.............................. CYCLE    8 ..............................
........................................................................

 iter      E             dE          RMSdq      gap      omega  full diag
   1   -523.2109743 -0.523211E+03  0.372E-01    0.03       0.0  T
   2   -521.0447860  0.216619E+01  0.261E+00    0.05       1.0  T
   3   -522.7183803 -0.167359E+01  0.154E+00    0.00       1.0  T
   4   -522.7776958 -0.593156E-01  0.121E+00    0.02       1.0  T
   5   -522.9774390 -0.199743E+00  0.889E-01    0.03       1.0  T
   6   -523.1919817 -0.214543E+00  0.432E-01    0.01       1.0  T
   7   -522.9230847  0.268897E+00  0.969E-01    0.01       1.0  T
   8   -523.2294562 -0.306371E+00  0.257E-01    0.02       1.0  T
   9   -522.9084481  0.321008E+00  0.959E-01    0.03       1.0  T
  10   -523.1834448 -0.274997E+00  0.447E-01    0.02       1.0  T
  11   -523.1867507 -0.330597E-02  0.440E-01    0.00       1.0  T
  12   -523.1588060  0.279447E-01  0.523E-01    0.01       1.0  T
  13   -523.2442588 -0.854528E-01  0.154E-01    0.02       1.0  T
  14   -523.1327274  0.111531E+00  0.569E-01    0.02       1.0  T
  15   -523.2495734 -0.116846E+00  0.845E-02    0.02       1.0  T
  16   -523.2501742 -0.600765E-03  0.580E-02    0.02       1.0  T
  17   -523.2509369 -0.762702E-03  0.324E-02    0.02       1.0  T
  18   -523.2508026  0.134284E-03  0.338E-02    0.02       1.0  T
  19   -523.2511239 -0.321307E-03  0.142E-02    0.02       1.0  T
  20   -523.2511685 -0.445191E-04  0.674E-03    0.02       1.0  T
  21   -523.2511656  0.289183E-05  0.711E-03    0.02       1.0  T
  22   -523.2511479  0.176687E-04  0.942E-03    0.02       1.0  T
  23   -523.2511690 -0.210646E-04  0.490E-03    0.02       1.1  T
  24   -523.2511760 -0.705416E-05  0.223E-03    0.02       2.5  T
  25   -523.2511761 -0.445549E-07  0.203E-03    0.02       2.8  T
  26   -523.2511772 -0.118616E-05  0.672E-04    0.02       8.4  T
  27   -523.2511774 -0.139924E-06  0.207E-04    0.02      27.2  T
  28   -523.2511774  0.154364E-07  0.289E-04    0.02      19.5  T
     SCC iter.                  ...        0 min,  6.531 sec
     gradient                   ...        0 min,  0.377 sec
 * total energy  :  -517.1547700 Eh     change       -0.2213743E-01 Eh
   gradient norm :     0.0605108 Eh/α   predicted    -0.1604121E-01 ( -27.54%)
   displ. norm   :     0.8858929 α      lambda       -0.2561410E-01
   maximum displ.:     0.8832493 α      in ANC's #3, #35, #1, ...

........................................................................
.............................. CYCLE    9 ..............................
........................................................................

 iter      E             dE          RMSdq      gap      omega  full diag
   1   -523.2473183 -0.523247E+03  0.413E-01    0.03       0.0  T
   2   -521.6640068  0.158331E+01  0.230E+00    0.05       1.0  T
   3   -522.6071797 -0.943173E+00  0.170E+00    0.02       1.0  T
   4   -522.7839198 -0.176740E+00  0.124E+00    0.00       1.0  T
   5   -522.9772149 -0.193295E+00  0.945E-01    0.00       1.0  T
   6   -523.1434436 -0.166229E+00  0.667E-01    0.04       1.0  T
   7   -522.7991664  0.344277E+00  0.116E+00    0.04       1.0  T
   8   -523.0683289 -0.269163E+00  0.794E-01    0.01       1.0  T
   9   -522.9743777  0.939512E-01  0.944E-01    0.03       1.0  T
  10   -522.8211960  0.153182E+00  0.116E+00    0.07       1.0  T
  11   -522.9987659 -0.177570E+00  0.886E-01    0.03       1.0  T
  12   -523.1931308 -0.194365E+00  0.511E-01    0.01       1.0  T
  13   -523.2061151 -0.129843E-01  0.472E-01    0.04       1.0  T
  14   -523.2444689 -0.383538E-01  0.338E-01    0.00       1.0  T
  15   -523.2590688 -0.145999E-01  0.254E-01    0.00       1.0  T
  16   -523.2665081 -0.743931E-02  0.209E-01    0.01       1.0  T
  17   -523.2779929 -0.114848E-01  0.103E-01    0.02       1.0  T
  18   -523.2793374 -0.134448E-02  0.748E-02    0.02       1.0  T
  19   -523.2781647  0.117267E-02  0.938E-02    0.01       1.0  T
  20   -523.2804466 -0.228190E-02  0.484E-02    0.02       1.0  T
  21   -523.2809945 -0.547903E-03  0.291E-02    0.02       1.0  T
  22   -523.2811533 -0.158759E-03  0.168E-02    0.02       1.0  T
  23   -523.2811595 -0.623136E-05  0.156E-02    0.02       1.0  T
  24   -523.2811969 -0.374677E-04  0.109E-02    0.02       1.0  T
  25   -523.2812247 -0.277676E-04  0.640E-03    0.02       1.0  T
  26   -523.2812333 -0.854117E-05  0.386E-03    0.02       1.5  T
  27   -523.2812343 -0.108670E-05  0.333E-03    0.02       1.7  T
  28   -523.2812371 -0.274475E-05  0.160E-03    0.02       3.5  T
  29   -523.2812377 -0.600431E-06  0.962E-04    0.02       5.9  T
  30   -523.2812378 -0.149692E-06  0.639E-04    0.02       8.8  T
     SCC iter.                  ...        0 min,  7.022 sec
     gradient                   ...        0 min,  0.385 sec
 * total energy  :  -517.1798643 Eh     change       -0.2509421E-01 Eh
   gradient norm :     0.0653196 Eh/α   predicted    -0.2285975E-01 (  -8.90%)
   displ. norm   :     0.8042848 α      lambda       -0.2755895E-01
   maximum displ.:     0.7876860 α      in ANC's #3, #35, #2, ...

........................................................................
.............................. CYCLE   10 ..............................
........................................................................

 iter      E             dE          RMSdq      gap      omega  full diag
   1   -523.1779778 -0.523178E+03  0.776E-01    0.01       0.0  T
   2   -522.6179663  0.560011E+00  0.148E+00    0.15       1.0  T
   3   -522.3363468  0.281620E+00  0.179E+00    0.08       1.0  T
   4   -522.7059407 -0.369594E+00  0.136E+00    0.08       1.0  T
   5   -523.0416226 -0.335682E+00  0.896E-01    0.01       1.0  T
   6   -522.7781649  0.263458E+00  0.125E+00    0.04       1.0  T
   7   -522.9709377 -0.192773E+00  0.103E+00    0.01       1.0  T
   8   -522.9552990  0.156388E-01  0.102E+00    0.03       1.0  T
   9   -522.9793191 -0.240201E-01  0.960E-01    0.00       1.0  T
  10   -522.6463576  0.332962E+00  0.168E+00    0.01       1.0  T
  11   -522.7614938 -0.115136E+00  0.133E+00    0.04       1.0  T
  12   -522.3224785  0.439015E+00  0.236E+00    0.07       1.0  T
  13   -522.4268119 -0.104333E+00  0.220E+00    0.00       1.0  T
  14   -522.3596196  0.671923E-01  0.226E+00    0.01       1.0  T
  15   -522.9297526 -0.570133E+00  0.125E+00    0.02       1.0  T
  16   -523.1823645 -0.252612E+00  0.598E-01    0.01       1.0  T
  17   -523.1534219  0.289426E-01  0.664E-01    0.00       1.0  T
  18   -523.1453329  0.808908E-02  0.677E-01    0.02       1.0  T
  19   -523.2474100 -0.102077E+00  0.417E-01    0.02       1.0  T
  20   -523.2599589 -0.125489E-01  0.342E-01    0.02       1.0  T
  21   -523.2755053 -0.155464E-01  0.272E-01    0.02       1.0  T
  22   -523.2918807 -0.163754E-01  0.200E-01    0.01       1.0  T
  23   -523.2962604 -0.437975E-02  0.127E-01    0.01       1.0  T
  24   -523.2997496 -0.348920E-02  0.870E-02    0.02       1.0  T
  25   -523.2994364  0.313208E-03  0.952E-02    0.02       1.0  T
  26   -523.2995456 -0.109145E-03  0.848E-02    0.01       1.0  T
  27   -523.2999328 -0.387277E-03  0.731E-02    0.02       1.0  T
  28   -523.2995051  0.427697E-03  0.774E-02    0.02       1.0  T
  29   -523.2997231 -0.217953E-03  0.665E-02    0.02       1.0  T
  30   -523.3002631 -0.539971E-03  0.487E-02    0.02       1.0  T
  31   -523.3004680 -0.204950E-03  0.404E-02    0.02       1.0  T
  32   -523.3006521 -0.184115E-03  0.237E-02    0.02       1.0  T
  33   -523.3007860 -0.133836E-03  0.104E-02    0.02       1.0  T
  34   -523.3007961 -0.101356E-04  0.706E-03    0.02       1.0  T
  35   -523.3008030 -0.684607E-05  0.493E-03    0.02       1.1  T
  36   -523.3008053 -0.233640E-05  0.369E-03    0.02       1.5  T
  37   -523.3008067 -0.143096E-05  0.256E-03    0.02       2.2  T
  38   -523.3008070 -0.326314E-06  0.183E-03    0.02       3.1  T
  39   -523.3008071 -0.897456E-07  0.127E-03    0.02       4.4  T
  40   -523.3008072 -0.294750E-07  0.787E-04    0.02       7.2  T
  41   -523.3008072 -0.348672E-07  0.443E-04    0.02      12.7  T
     SCC iter.                  ...        0 min,  9.018 sec
     gradient                   ...        0 min,  0.377 sec
 * total energy  :  -517.2025518 Eh     change       -0.2268756E-01 Eh
   gradient norm :     0.0407098 Eh/α   predicted    -0.2269463E-01 (   0.03%)
   displ. norm   :     0.6846949 α      lambda       -0.1530485E-01
   maximum displ.:     0.6273013 α      in ANC's #3, #2, #35, ...

........................................................................
.............................. CYCLE   11 ..............................
........................................................................

 iter      E             dE          RMSdq      gap      omega  full diag
   1   -523.0740091 -0.523074E+03  0.932E-01    0.00       0.0  T
   2   -522.5034323  0.570577E+00  0.159E+00    0.58       1.0  T
   3   -522.3871444  0.116288E+00  0.175E+00    0.03       1.0  T
   4   -522.6443841 -0.257240E+00  0.142E+00    0.16       1.0  T
   5   -523.0124246 -0.368041E+00  0.969E-01    0.04       1.0  T
   6   -522.8244008  0.188024E+00  0.123E+00    0.06       1.0  T
   7   -522.9054786 -0.810778E-01  0.111E+00    0.01       1.0  T
   8   -523.2362739 -0.330795E+00  0.516E-01    0.00       1.0  T
   9   -522.7433016  0.492972E+00  0.128E+00    0.07       1.0  T
  10   -523.1936942 -0.450393E+00  0.590E-01    0.01       1.0  T
  11   -523.0591983  0.134496E+00  0.851E-01    0.01       1.0  T
  12   -522.9878253  0.713730E-01  0.942E-01    0.01       1.0  T
  13   -522.7369922  0.250833E+00  0.140E+00    0.02       1.0  T
  14   -523.1528045 -0.415812E+00  0.677E-01    0.00       1.0  T
  15   -523.2196053 -0.668008E-01  0.502E-01    0.01       1.0  T
  16   -523.2072808  0.123245E-01  0.553E-01    0.00       1.0  T
  17   -523.2344103 -0.271295E-01  0.458E-01    0.02       1.0  T
  18   -523.2878882 -0.534778E-01  0.234E-01    0.01       1.0  T
  19   -523.2915311 -0.364298E-02  0.240E-01    0.01       1.0  T
  20   -523.2949237 -0.339256E-02  0.188E-01    0.01       1.0  T
  21   -523.3044587 -0.953496E-02  0.982E-02    0.02       1.0  T
  22   -523.3040621  0.396606E-03  0.879E-02    0.02       1.0  T
  23   -523.3034208  0.641280E-03  0.113E-01    0.01       1.0  T
  24   -523.3057242 -0.230344E-02  0.549E-02    0.02       1.0  T
  25   -523.3063734 -0.649128E-03  0.402E-02    0.02       1.0  T
  26   -523.3066567 -0.283325E-03  0.225E-02    0.02       1.0  T
  27   -523.3066961 -0.393889E-04  0.189E-02    0.02       1.0  T
  28   -523.3067616 -0.655253E-04  0.128E-02    0.02       1.0  T
  29   -523.3068037 -0.420707E-04  0.657E-03    0.02       1.0  T
  30   -523.3068143 -0.106758E-04  0.298E-03    0.02       1.9  T
  31   -523.3068151 -0.720609E-06  0.323E-03    0.02       1.7  T
  32   -523.3068163 -0.124441E-05  0.214E-03    0.02       2.6  T
  33   -523.3068173 -0.939844E-06  0.101E-03    0.02       5.6  T
  34   -523.3068175 -0.218083E-06  0.589E-04    0.02       9.6  T
  35   -523.3068175 -0.534736E-07  0.453E-04    0.02      12.4  T
     SCC iter.                  ...        0 min,  8.623 sec
     gradient                   ...        0 min,  0.408 sec
 * total energy  :  -517.2110699 Eh     change       -0.8518077E-02 Eh
   gradient norm :     0.0347685 Eh/α   predicted    -0.1124056E-01 (  31.96%)
   displ. norm   :     0.3135228 α      lambda       -0.4496086E-02
   maximum displ.:     0.2577738 α      in ANC's #1, #35, #2, ...

........................................................................
.............................. CYCLE   12 ..............................
........................................................................

 iter      E             dE          RMSdq      gap      omega  full diag
   1   -523.2269150 -0.523227E+03  0.484E-01    0.00       0.0  T
   2   -522.5065436  0.720371E+00  0.168E+00    0.01       1.0  T
   3   -522.8529379 -0.346394E+00  0.113E+00    0.00       1.0  T
   4   -522.9064432 -0.535053E-01  0.107E+00    0.03       1.0  T
   5   -522.9746597 -0.682164E-01  0.959E-01    0.03       1.0  T
   6   -523.0814036 -0.106744E+00  0.798E-01    0.00       1.0  T
   7   -523.0960466 -0.146430E-01  0.779E-01    0.02       1.0  T
   8   -523.1553279 -0.592812E-01  0.638E-01    0.03       1.0  T
   9   -523.2191417 -0.638138E-01  0.479E-01    0.00       1.0  T
  10   -523.2195960 -0.454251E-03  0.489E-01    0.01       1.0  T
  11   -523.1268979  0.926980E-01  0.714E-01    0.01       1.0  T
  12   -523.1282073 -0.130940E-02  0.706E-01    0.03       1.0  T
  13   -523.2793400 -0.151133E+00  0.254E-01    0.01       1.0  T
  14   -523.2969657 -0.176257E-01  0.123E-01    0.02       1.0  T
  15   -523.2989276 -0.196188E-02  0.948E-02    0.02       1.0  T
  16   -523.3018295 -0.290190E-02  0.327E-02    0.02       1.0  T
  17   -523.3006093  0.122024E-02  0.661E-02    0.02       1.0  T
  18   -523.3018335 -0.122420E-02  0.323E-02    0.02       1.0  T
  19   -523.3012964  0.537057E-03  0.500E-02    0.02       1.0  T
  20   -523.3021920 -0.895582E-03  0.724E-03    0.02       1.0  T
  21   -523.3019726  0.219384E-03  0.256E-02    0.02       1.0  T
  22   -523.3021891 -0.216444E-03  0.773E-03    0.02       1.0  T
  23   -523.3022015 -0.124172E-04  0.490E-03    0.02       1.2  T
  24   -523.3022056 -0.416263E-05  0.362E-03    0.02       1.6  T
  25   -523.3022088 -0.320529E-05  0.205E-03    0.02       2.8  T
  26   -523.3022096 -0.789185E-06  0.142E-03    0.02       4.0  T
  27   -523.3022093  0.288322E-06  0.168E-03    0.02       3.4  T
  28   -523.3022094 -0.871584E-07  0.163E-03    0.02       3.5  T
  29   -523.3022102 -0.810655E-06  0.613E-04    0.02       9.2  T
  30   -523.3022103 -0.905787E-07  0.349E-04    0.02      16.1  T
     SCC iter.                  ...        0 min,  7.584 sec
     gradient                   ...        0 min,  0.400 sec
 * total energy  :  -517.2136016 Eh     change       -0.2531669E-02 Eh
   gradient norm :     0.0155406 Eh/α   predicted    -0.2468925E-02 (  -2.48%)
   displ. norm   :     0.3126914 α      lambda       -0.1555331E-02
   maximum displ.:     0.2515142 α      in ANC's #1, #2, #3, ...

........................................................................
.............................. CYCLE   13 ..............................
........................................................................

 iter      E             dE          RMSdq      gap      omega  full diag
   1   -523.3012517 -0.523301E+03  0.125E-01    0.02       0.0  T
   2   -522.6368381  0.664414E+00  0.139E+00    0.02       1.0  T
   3   -523.1681113 -0.531273E+00  0.596E-01    0.02       1.0  T
   4   -523.2837061 -0.115595E+00  0.240E-01    0.00       1.0  T
   5   -523.0733082  0.210398E+00  0.829E-01    0.01       1.0  T
   6   -523.2944839 -0.221176E+00  0.182E-01    0.01       1.0  T
   7   -523.2626712  0.318127E-01  0.376E-01    0.00       1.0  T
   8   -523.1060388  0.156632E+00  0.757E-01    0.01       1.0  T
   9   -523.2286028 -0.122564E+00  0.463E-01    0.03       1.0  T
  10   -523.2987272 -0.701244E-01  0.124E-01    0.01       1.0  T
  11   -523.1480970  0.150630E+00  0.651E-01    0.04       1.0  T
  12   -523.2998602 -0.151763E+00  0.100E-01    0.02       1.0  T
  13   -523.2719890  0.278712E-01  0.291E-01    0.01       1.0  T
  14   -523.3028377 -0.308486E-01  0.436E-02    0.02       1.0  T
  15   -523.3022557  0.581996E-03  0.562E-02    0.01       1.0  T
  16   -523.3028587 -0.603067E-03  0.385E-02    0.02       1.0  T
  17   -523.3032696 -0.410919E-03  0.193E-02    0.02       1.0  T
  18   -523.3030213  0.248358E-03  0.321E-02    0.02       1.0  T
  19   -523.3033892 -0.367872E-03  0.612E-03    0.02       1.0  T
  20   -523.3033338  0.553683E-04  0.133E-02    0.02       1.0  T
  21   -523.3033961 -0.623257E-04  0.300E-03    0.02       1.9  T
  22   -523.3033968 -0.654315E-06  0.270E-03    0.02       2.1  T
  23   -523.3033989 -0.215753E-05  0.121E-03    0.02       4.6  T
  24   -523.3033993 -0.363349E-06  0.679E-04    0.02       8.3  T
  25   -523.3033993 -0.349243E-07  0.610E-04    0.02       9.2  T
     SCC iter.                  ...        0 min,  6.075 sec
     gradient                   ...        0 min,  0.371 sec
 * total energy  :  -517.2142445 Eh     change       -0.6429453E-03 Eh
   gradient norm :     0.0096177 Eh/α   predicted    -0.8537481E-03 (  32.79%)
   displ. norm   :     0.1892388 α      lambda       -0.7424223E-03
   maximum displ.:     0.1738807 α      in ANC's #1, #2, #3, ...

........................................................................
.............................. CYCLE   14 ..............................
........................................................................

 iter      E             dE          RMSdq      gap      omega  full diag
   1   -523.2990013 -0.523299E+03  0.134E-01    0.02       0.0  T
   2   -522.4091011  0.889900E+00  0.167E+00    0.00       1.0  T
   3   -523.1671273 -0.758026E+00  0.688E-01    0.00       1.0  T
   4   -523.2776268 -0.110499E+00  0.276E-01    0.01       1.0  T
   5   -523.2845926 -0.696583E-02  0.233E-01    0.01       1.0  T
   6   -523.1854046  0.991880E-01  0.581E-01    0.00       1.0  T
   7   -523.2834575 -0.980530E-01  0.239E-01    0.01       1.0  T
   8   -523.2920491 -0.859159E-02  0.188E-01    0.02       1.0  T
   9   -523.2542592  0.377900E-01  0.382E-01    0.00       1.0  T
  10   -523.3032339 -0.489747E-01  0.470E-02    0.01       1.0  T
  11   -523.2442336  0.590003E-01  0.390E-01    0.01       1.0  T
  12   -523.3035292 -0.592957E-01  0.329E-02    0.02       1.0  T
  13   -523.2810349  0.224943E-01  0.245E-01    0.00       1.0  T
  14   -523.3037295 -0.226946E-01  0.212E-02    0.02       1.0  T
  15   -523.3037937 -0.641545E-04  0.152E-02    0.02       1.0  T
  16   -523.3038365 -0.428657E-04  0.971E-03    0.02       1.0  T
  17   -523.3038291  0.746410E-05  0.101E-02    0.02       1.0  T
  18   -523.3038614 -0.323585E-04  0.262E-03    0.02       2.2  T
  19   -523.3038552  0.625268E-05  0.481E-03    0.02       1.2  T
  20   -523.3038623 -0.713260E-05  0.193E-03    0.02       2.9  T
  21   -523.3038629 -0.622149E-06  0.130E-03    0.02       4.3  T
  22   -523.3038633 -0.353640E-06  0.765E-04    0.02       7.4  T
  23   -523.3038633 -0.579923E-07  0.649E-04    0.02       8.7  T
     SCC iter.                  ...        0 min,  5.601 sec
     gradient                   ...        0 min,  0.378 sec
 * total energy  :  -517.2145386 Eh     change       -0.2940803E-03 Eh
   gradient norm :     0.0073734 Eh/α   predicted    -0.3845086E-03 (  30.75%)
   displ. norm   :     0.0471551 α      lambda       -0.1824428E-03
   maximum displ.:     0.0371872 α      in ANC's #3, #105, #124, ...

........................................................................
.............................. CYCLE   15 ..............................
........................................................................

 iter      E             dE          RMSdq      gap      omega  full diag
   1   -523.3035178 -0.523304E+03  0.692E-02    0.02       0.0  T
   2   -523.2045587  0.989590E-01  0.544E-01    0.01       1.0  T
   3   -523.1272546  0.773041E-01  0.709E-01    0.01       1.0  T
   4   -523.2255129 -0.982582E-01  0.463E-01    0.00       1.0  T
   5   -523.2999371 -0.744242E-01  0.132E-01    0.02       1.0  T
   6   -523.2958049  0.413213E-02  0.169E-01    0.01       1.0  T
   7   -523.2973276 -0.152267E-02  0.149E-01    0.01       1.0  T
   8   -523.3014268 -0.409924E-02  0.106E-01    0.02       1.0  T
   9   -523.2891517  0.122751E-01  0.212E-01    0.01       1.0  T
  10   -523.3045825 -0.154308E-01  0.162E-02    0.02       1.0  T
  11   -523.2982023  0.638017E-02  0.132E-01    0.00       1.0  T
  12   -523.3044806 -0.627832E-02  0.277E-02    0.02       1.0  T
  13   -523.3032476  0.123297E-02  0.621E-02    0.02       1.0  T
  14   -523.3046413 -0.139368E-02  0.939E-03    0.02       1.0  T
  15   -523.3046586 -0.172445E-04  0.388E-03    0.02       1.5  T
  16   -523.3046609 -0.233111E-05  0.308E-03    0.02       1.8  T
  17   -523.3046627 -0.176439E-05  0.146E-03    0.02       3.8  T
  18   -523.3046596  0.305782E-05  0.388E-03    0.02       1.5  T
  19   -523.3046623 -0.269485E-05  0.157E-03    0.02       3.6  T
  20   -523.3046630 -0.660834E-06  0.759E-04    0.02       7.4  T
  21   -523.3046630 -0.657164E-07  0.593E-04    0.02       9.5  T
     SCC iter.                  ...        0 min,  5.206 sec
     gradient                   ...        0 min,  0.357 sec
 * total energy  :  -517.2146515 Eh     change       -0.1128633E-03 Eh
   gradient norm :     0.0022714 Eh/α   predicted    -0.9142449E-04 ( -19.00%)
   displ. norm   :     0.0548151 α      lambda       -0.4222248E-04
   maximum displ.:     0.0391555 α      in ANC's #1, #3, #2, ...

........................................................................
.............................. CYCLE   16 ..............................
........................................................................

 iter      E             dE          RMSdq      gap      omega  full diag
   1   -523.3047463 -0.523305E+03  0.259E-02    0.02       0.0  T
   2   -523.1262019  0.178544E+00  0.709E-01    0.02       1.0  T
   3   -523.2942519 -0.168050E+00  0.169E-01    0.00       1.0  T
   4   -523.3043845 -0.101326E-01  0.396E-02    0.02       1.0  T
   5   -523.2960786  0.830591E-02  0.160E-01    0.02       1.0  T
   6   -523.3002975 -0.421885E-02  0.117E-01    0.01       1.0  T
   7   -523.3045854 -0.428793E-02  0.331E-02    0.02       1.0  T
   8   -523.3043211  0.264340E-03  0.434E-02    0.02       1.0  T
   9   -523.3022590  0.206205E-02  0.888E-02    0.01       1.0  T
  10   -523.3049257 -0.266672E-02  0.881E-03    0.02       1.0  T
  11   -523.3041558  0.769935E-03  0.474E-02    0.02       1.0  T
  12   -523.3049180 -0.762229E-03  0.903E-03    0.02       1.0  T
  13   -523.3047593  0.158674E-03  0.222E-02    0.02       1.0  T
  14   -523.3049462 -0.186828E-03  0.227E-03    0.02       2.5  T
  15   -523.3049470 -0.793461E-06  0.134E-03    0.02       4.2  T
  16   -523.3049470 -0.237468E-07  0.109E-03    0.02       5.2  T
  17   -523.3049471 -0.150935E-06  0.765E-04    0.02       7.4  T
  18   -523.3049472 -0.108157E-07  0.627E-04    0.02       9.0  T
     SCC iter.                  ...        0 min,  4.620 sec
     gradient                   ...        0 min,  0.419 sec
 * total energy  :  -517.2146769 Eh     change       -0.2547891E-04 Eh
   gradient norm :     0.0011881 Eh/α   predicted    -0.2118111E-04 ( -16.87%)
   displ. norm   :     0.0433045 α      lambda       -0.9918247E-05
   maximum displ.:     0.0260525 α      in ANC's #1, #3, #103, ...

   *** GEOMETRY OPTIMIZATION CONVERGED AFTER 16 ITERATIONS ***

------------------------------------------------------------------------
 total energy gain   :        -0.1246498 Eh      -78.2190 kcal/mol
 total RMSD          :         0.3457600 a0        0.1830 Å
 total power (kW/mol):       -20.4542568 (step)   -2.9642 (real)
------------------------------------------------------------------------

 ANCopt (total)                0 d,  0 h,  1 min, 50.407 sec
 optimizer setup                ...        0 min,  0.001 sec (  0.001%)
 model hessian                  ...        0 min,  0.210 sec (  0.190%)
 ANC generation                 ...        0 min,  0.076 sec (  0.069%)
 coordinate transformation      ...        0 min,  0.171 sec (  0.155%)
 single point calculation       ...        1 min, 49.597 sec ( 99.267%)
 optimization log               ...        0 min,  0.031 sec (  0.028%)
 hessian update                 ...        0 min,  0.301 sec (  0.273%)
 rational function              ...        0 min,  0.015 sec (  0.013%)

================
 final structure:
================
315
 xtb: 6.6.1 (8d0f1dd)
N           37.52364745264454       27.12736233138314       35.91015782221488
H           38.23499997674828       27.84591418165723       35.78268258336622
C           36.32595461407699       27.42582424028990       35.39179168683638
H           35.53862886431727       26.75792808547207       35.73860201918141
C           35.88198297204570       28.91089774245959       35.33107509145696
H           36.71350853903002       29.50241784641997       34.94679132767486
H           35.02928765385999       29.05064123527590       34.66544745772199
C           35.51740900176360       29.37011743653087       36.75523532285494
H           36.13869467292247       28.81388108257584       37.46473612866740
C           35.80176625414563       30.86646417292398       36.94908413125944
H           35.53347970893709       31.44567396241526       36.06942248433617
H           35.19585028524019       31.24524856787612       37.77061836537391
H           36.83259759690516       31.07184021822343       37.20990943602863
C           34.04772265406693       29.05171140743980       37.02295805674725
H           33.83824987140195       28.00520739216779       36.82428892959580
H           33.80348648336126       29.26515398416292       38.05989131777592
H           33.41761012050860       29.67050620878710       36.38814167818184
C           36.56891804819939       27.17773227776738       33.83497258139115
O           37.44007555237434       27.60009792775745       33.19368887872039
C           38.10367272376055       39.34013983220954       38.73894436207598
C           39.33802607004600       39.61052689510318       38.22805731232715
C           39.77257752930204       39.04809602900236       36.98596656980423
C           37.15585356493745       38.49475844176622       38.08478717944160
C           37.58785318567449       37.94189985316346       36.85175434677132
C           38.81763612877656       38.20337057697535       36.32679127029697
C           35.87087110987945       38.22969715455933       38.63645350534079
C           34.75396700863780       37.49201486590678       38.23052825241501
C           33.50053887635498       37.39181851415407       39.01691016544638
H           37.81579307037292       39.77837033693350       39.68562296459717
H           40.02385195231762       40.25377761636526       38.76024775247341
H           39.11423686836305       37.74944692148346       35.38909195113162
H           36.93014543853161       37.26475918606602       36.32605800590139
H           35.68809326373365       38.71137581508300       39.59527920788411
O           40.92736424415087       39.26306090837032       36.51782318988545
O           33.14963614413860       37.88052710147325       40.09345415501555
N           34.56566117081802       36.72268241134412       37.09326979878510
N           32.65723306931110       36.55148912568102       38.27416745784856
C           33.38682278509539       36.16613988482260       37.13503619606257
C           31.31070789921700       36.22533269267716       38.69497098160131
C           32.76944275651856       35.34629268975229       36.01221512972401
H           30.85877073393513       37.16669551837542       39.04352482990908
H           30.76997516151969       35.83628758346583       37.82552811516320
C           31.16026134266122       35.24241823145007       39.81583397876467
O           30.53663896005965       35.25179425009751       40.81360958257880
N           31.98333402217636       36.28593103070116       35.28877938927480
H           32.60571110319911       36.88847578469808       34.75605674791506
H           32.11782187893233       34.57269493014323       36.43734260502726
C           33.79997108733383       34.65050711766085       35.05698382640504
C           34.81678030079382       35.64597658290808       34.48785209426734
H           35.82105201723838       35.23662540412551       34.52371556226465
H           34.84871847135232       36.55180856753765       35.08589716319994
H           34.58118624826357       35.91454628886340       33.46203213731189
H           33.19303720180099       34.21981436944048       34.25258028833356
O           34.45908578542259       33.53170651465149       35.61586979935672
H           35.14352206828371       33.84699337710032       36.22170756000639
N           42.80504040293042       39.04334867115288       27.80674879016408
H           43.17418439185877       38.09248410379490       27.76758674599081
C           42.62633057621954       39.39782989254297       29.16047388769413
H           42.35419359731749       40.46152482800421       29.18103863119940
C           41.47640543276960       38.58463648117619       29.83389687053758
H           40.84510076367098       38.20175570471455       29.02984340683656
H           41.91072779566269       37.72962117828347       30.36200675903551
C           40.64405846722812       39.41424008551826       30.76005064406763
C           39.56397576711853       40.12611897793644       30.24919203132129
H           39.39333722351318       40.12029230469177       29.18305023010321
C           38.69458897095734       40.80579740841622       31.07555029099259
H           37.85246926169886       41.33302762159698       30.65326194036300
C           38.90230987804478       40.81725384771182       32.45254197775394
O           38.07953597108430       41.55012102479378       33.25622828168933
H           37.38119507509821       41.96404007312122       32.72319607982131
C           39.99672271830467       40.12839609163526       32.97646982054228
H           40.14381192658781       40.10559885322840       34.04683506141410
C           40.84761386665036       39.42522279055027       32.13772644715218
H           41.66381866021870       38.86716419289903       32.57246896210997
C           43.88284449487202       39.17919968921812       30.02144450340768
O           44.59828608852267       38.19380513264316       29.90509194835501
N           44.14265521121827       40.18722324370687       30.86869429492072
H           43.38840600693361       40.81258629783202       31.11512521646352
C           45.27869045750199       40.15444462999279       31.76038160772396
H           46.07884503058699       39.61200406896039       31.24161026932574
C           45.71453508193527       41.58111440581640       32.06813599554900
H           44.84557554871480       42.18542114716089       32.33108962250900
H           46.39699951865465       41.57318162161703       32.92010104205774
C           46.45694486991795       42.11184685191841       30.84827252884172
O           47.33317949780803       41.44878844429432       30.30868227082346
N           46.10144204233904       43.32871346231928       30.43830668913813
H           46.50490556563134       43.67316197886196       29.57937164297520
H           45.24804333376171       43.75344135828589       30.76466701259731
C           44.93216255903722       39.42160659338307       33.04740755260750
O           43.77074473989095       39.15319597869966       33.33492491187224
N           45.98142140053408       39.12429923117519       33.81463597573030
H           46.91538322091710       39.33952623655833       33.49853507537502
C           45.86212385921989       38.47357965282122       35.10166983567678
H           44.97867027192903       37.83201614930436       35.10317860857515
C           47.13133647351140       37.69337258541334       35.40597908614581
H           47.07850445674704       37.31086397001641       36.42639687080937
H           48.00556179583024       38.33346229908642       35.28749647436365
S           47.24707712350830       36.29673284328310       34.26181097330650
C           45.78773959032868       39.56366553310527       36.14681136938773
O           46.50305497753895       40.53805487204469       35.96333559996101
N           44.99737645584451       39.41911204231823       37.21166006388008
H           44.44852762499384       38.57344298529685       37.30832477048964
C           44.92407527495119       40.45130002077114       38.22376240416784
H           45.82822179813729       41.05697473823875       38.07338163415153
C           43.67997541011647       41.37418620886523       38.10710355506957
H           42.80347263962647       40.82866740222487       38.47049417264770
H           43.82116230640224       42.27512112350293       38.69863991588170
C           43.42325163030174       41.77083429035415       36.70527089802435
N           42.80653066316604       40.92886214251143       35.82249741749180
H           42.37441433794542       40.04359219271151       36.03582351508684
C           42.72507334664134       41.57674701694833       34.65475079461181
H           42.28384586938991       41.15433137301797       33.77567800174995
N           43.27114589394041       42.76947719444065       34.72379402424091
C           43.70660094096227       42.91302581565079       36.00955463468138
H           44.18395299848719       43.81279026566632       36.33139548319403
C           44.90306127859493       39.84518537634889       39.60933972513122
O           44.97228271022978       38.64130012618789       39.80996710806497
N           44.79347215206387       40.76080724816553       40.58844862805638
H           44.84553680978034       41.74164422383756       40.35066343672909
C           44.66992594576447       40.45392510102527       41.98845194618068
H           44.61854079691764       39.36710762813409       42.09492285752179
C           45.76484743231212       41.09312182336731       42.85431876900486
H           45.64392381968117       42.17835899553153       42.85608104895408
H           45.65311229341670       40.73260820839056       43.87847060344622
C           47.19958731493519       40.82947767774049       42.41643471862131
O           47.97625758902910       41.76385111779202       42.28314493353511
N           47.55217416335913       39.55325615067265       42.27868624364613
H           48.48682028498284       39.33889368047900       41.96828092428808
H           46.87784355780828       38.80936820279479       42.33313860841604
C           43.41436368913693       41.12755933231459       42.49796793492416
O           43.21893438606828       42.28848334450948       42.59829024148566
N           42.82091349659679       45.97351176423922       33.70691783581508
H           43.05606444148926       44.99263485326363       33.85317979666886
C           43.63131015659224       46.62933839486276       32.86791041265231
H           43.44518247110786       47.70267580632265       32.86138675052815
C           45.14460058941138       46.24682353643411       32.91555439549713
H           45.26464801856626       45.18082368008837       32.73181902708841
H           45.68684623486035       46.80678991481865       32.15344514411503
C           45.67884773493468       46.56357935319591       34.31565828666871
H           44.99881846921971       47.24968649805029       34.82258751128435
H           45.72531451291049       45.64486408801524       34.89854184629876
C           47.06260193094396       47.20822704916453       34.20080899173335
H           47.72529049796294       46.50945964775804       33.67937592890595
H           46.97537139608298       48.13264210306934       33.62072864249190
N           47.59500106603164       47.50092739100779       35.51676850807088
H           46.97612851319420       47.36190453814336       36.30011524318144
C           48.78171846487584       48.07013818814379       35.71671599650032
N           49.61049445499378       48.28082404084294       34.70179692651941
H           49.37245962484231       47.99551005506873       33.76886603061789
H           50.51618035907774       48.68833096119725       34.85930898113749
N           49.13580408452729       48.43549121293938       36.94519034119243
H           48.53989230379019       48.24608266966423       37.73206138699781
H           50.05182505371762       48.80909836968000       37.12563328983043
C           43.39022007108449       46.01221602202013       31.44245506088626
O           43.76212178965523       44.99660072638442       31.02719796744386
N           44.30296440126295       35.66949288717556       42.93076026324934
H           43.87455658113239       34.75708654122086       43.07335890032510
C           45.19295293265239       35.61576172646085       41.82931620822244
H           45.55264772604905       36.62688132292398       41.61090191542817
C           46.41009828107799       34.68326911318958       42.13786649746623
H           46.45113730746092       34.53004894132266       43.22162001917394
H           46.22303159156527       33.72053604261235       41.65187575925744
O           47.62197214978517       35.16269029797071       41.63938527098318
H           47.98858392716492       35.81338324420445       42.25583870140505
C           44.42972469692614       35.05801361739525       40.63503253151241
O           44.12898829736624       33.86561514784374       40.57958632068851
N           44.00572668319924       35.97662429553010       39.75938872464806
H           44.38859429517103       36.91746935302046       39.76149242089766
C           43.06713576486492       35.63358336419914       38.71707575196439
H           42.77357957857780       34.59246155851175       38.89379985570220
C           41.80033440915726       36.53259629673167       38.82389229138576
H           42.07673046703918       37.54342578995525       38.47375207587599
C           40.68652682821130       36.01523583528434       37.92092912259465
H           40.93870909491037       36.17907156423900       36.87505765588391
H           40.50452392506438       34.95657425279018       38.07155213156477
H           39.76206148116164       36.54415663976265       38.13455139461290
O           41.32591429326691       36.61579704843794       40.14814428741816
H           42.04781426093012       36.90473707453722       40.72807610691938
C           43.64871293522769       35.73010734427843       37.30602489705942
O           44.18386692269644       36.75999771123663       36.89603460423662
N           43.49005223944462       34.62691895383271       36.56360764976311
H           43.13490437624192       33.77078298168467       36.98244579159788
C           43.78929134258917       34.60430519688489       35.15195557058079
H           43.86745904138286       35.66859735295706       34.87567094013470
C           45.12002446111170       33.93718192632951       34.68460618524529
H           45.59777481350372       34.58714253625739       33.95575027101658
H           44.86368443542605       32.99459135654111       34.18641435461565
S           46.31852426286635       33.45170720675186       35.95910257054162
C           42.59333984611075       34.04759030325177       34.38555670112246
O           41.80253214134672       33.23323064014497       34.85467515234314
N           42.44974272838459       34.55680136632598       33.16960463129071
H           43.07048625535921       35.25863256765957       32.78760851819223
C           41.38538841649847       34.12815466178604       32.30789743035853
H           41.12371734638534       33.10805852218206       32.59476941951493
C           40.12686717496592       35.02937153182644       32.43013097052544
H           39.95872379090067       35.54479442491184       31.47395197887737
H           39.25290385886574       34.42444176379961       32.65064762442233
O           40.30470151554060       36.03028051231773       33.41118898697027
H           39.63395362314895       35.90981782762879       34.10025992499835
C           41.94697222912420       34.14273748340506       30.89983565895524
O           42.91968840125784       34.83294246258368       30.64118701175266
N           41.33755861360915       33.36438474290081       30.00821009268377
H           40.67457715467815       32.67720754338838       30.35811850290565
C           41.82886352046291       33.23870920863224       28.65658292788836
H           42.43710985985664       34.11369660219876       28.42455229240559
C           42.60420241650418       31.92820914054266       28.47748265303083
H           42.88404889357629       31.79102591821986       27.43744307962851
H           43.50292354819711       31.97826776577883       29.08704224316207
H           41.99309532444035       31.09101275410593       28.80434458437109
C           40.62910658030319       33.07396564910299       27.78182779908465
O           39.77881561924455       32.25951674532108       27.93007541438502
N           35.43331795297373       31.06546900274173       27.81084637248440
H           34.73985370554067       30.39749226416498       28.14938754959021
C           36.17263469551117       31.54673122112121       28.91518093476293
H           36.99482314546454       32.13789851621518       28.50177218339539
C           35.30232624758617       32.40712746895258       29.86741983564777
H           35.04103250911793       33.32395096147671       29.33776850520788
H           34.38180383930345       31.85203190966721       30.06617077976901
C           35.99277725693278       32.74052535312467       31.17418488415221
H           36.14123388516045       31.82653487705081       31.75830618377853
C           37.33220538179607       33.41852222585340       30.89719420558405
H           37.30559455636853       34.44267221797199       31.27350679634451
H           38.15476915651938       32.93181628762724       31.40733585158690
H           37.55904022732549       33.48965958354552       29.83991613117493
C           35.11624833587172       33.68386298883680       31.98320557344462
H           34.14700289479667       33.23515460406546       32.19158843489313
H           35.59982914351562       33.89754619137658       32.92826466384973
H           34.96175344027949       34.61498445482123       31.44463555843094
C           36.72903231149806       30.42277112247469       29.79628479857190
O           36.10008006903966       29.40467227729351       30.04826124583787
N           37.94423671703976       30.69309822865774       30.26338399777131
H           38.46476651074114       31.46076009270764       29.86688316232556
C           38.68962581798934       29.81411039624113       31.12019791688097
H           37.98285620974998       29.12888229984380       31.58821866907538
C           39.71841413218731       29.07246034862717       30.26793340736586
H           39.19380604609272       28.38482236189068       29.60390385936678
H           40.23282623721332       29.81540521955436       29.65303284799561
C           40.72126248449810       28.33400332885740       31.14080739226995
H           41.16133946761855       29.06149929340650       31.82545462951867
C           39.99924244343267       27.25190691800302       31.94700055265093
H           38.99872224011362       27.08873536986844       31.55794939873817
H           40.51532224133789       26.30001572345978       31.87907213896873
H           39.93006008018014       27.51333388408754       32.99911842782851
C           41.80137223436839       27.75462741953802       30.23320191697919
H           42.31434246256647       28.55540734424173       29.70271139083723
H           42.54244783719622       27.17634368488531       30.76507692237439
H           41.33449610356561       27.10822912254380       29.49202099643147
C           39.39223265887215       30.68312144615348       32.14834012864699
O           40.05841127441209       31.64868061897737       31.77319362545688
N           39.21630420551934       30.33122418801782       33.41749422464265
H           38.71700093785076       29.47475663888382       33.62096318766120
C           39.73608528875474       31.05037538681604       34.55550601260427
H           40.39881019889569       31.83502517831849       34.19178167260851
C           38.59646262276586       31.65547534795820       35.36813577709491
H           37.86640059372138       30.87612412430866       35.54990796333119
H           38.98205367640580       31.98012897107259       36.33950343684500
C           37.96538876742765       32.85946027710565       34.69565835952535
H           38.57767841185503       33.21995043983592       33.87301759912907
H           36.96919713277545       32.63477277468272       34.30690010968740
C           37.80634657103038       33.99672787332860       35.72124077156818
O           37.79863660077513       35.16610749652700       35.27910603022232
O           37.69141568487380       33.64267461609718       36.91119872331200
C           40.48182837830912       30.16933874914799       35.53710138766941
O           40.10869481045943       29.04295592398811       35.84101367076784
N           41.52183829362652       30.74651530935569       36.11806208159971
H           41.79969313992965       31.69546275398051       35.89521382652345
C           42.21277323567459       30.03671979272730       37.16012764058168
H           41.55484500738935       29.21244641983558       37.45816699468691
C           43.54722078744587       29.45725253813110       36.68456468743138
[...]
    20   6 C       29   1 H                                       1.0821836
    21   6 C       30   1 H                                       1.0804423
    25   6 C       31   1 H                                       1.0831892
    24   6 C       32   1 H                                       1.0804887
    26   6 C       33   1 H                                       1.0884710
    28   6 C       35   8 O                                       1.2332543
    28   6 C       37   7 N                                       1.4032054
    36   7 N       38   6 C                                       1.3042792
    37   7 N       38   6 C                                       1.4065616
    37   7 N       39   6 C                                       1.4479586
    39   6 C       41   1 H                                       1.1008638
    39   6 C       42   1 H                                       1.0952986
    43   6 C       44   8 O                                       1.1766687
    40   6 C       45   7 N                                       1.4227603
    40   6 C       47   1 H                                       1.0971768
    48   6 C       49   6 C                                       1.5325703
    49   6 C       50   1 H                                       1.0850882
    49   6 C       51   1 H                                       1.0859142
    49   6 C       52   1 H                                       1.0862509
    48   6 C       53   1 H                                       1.0958696
    48   6 C       54   8 O                                       1.4136834
    54   8 O       55   1 H                                       0.9669014
    56   7 N       58   6 C                                       1.4107325
    58   6 C       59   1 H                                       1.0981478
    60   6 C       61   1 H                                       1.0916251
    60   6 C       62   1 H                                       1.0948001
    63   6 C       64   6 C                                       1.3908009
    64   6 C       65   1 H                                       1.0797268
    64   6 C       66   6 C                                       1.3786459
    66   6 C       67   1 H                                       1.0795670
    66   6 C       68   6 C                                       1.3926183
    68   6 C       69   8 O                                       1.3638047
    69   8 O       70   1 H                                       0.9711501
    68   6 C       71   6 C                                       1.3952653
    71   6 C       72   1 H                                       1.0806650
    63   6 C       73   6 C                                       1.3926760
    71   6 C       73   6 C                                       1.3863474
    73   6 C       74   1 H                                       1.0801023
    75   6 C       76   8 O                                       1.2232732
    75   6 C       77   7 N                                       1.3421794
    77   7 N       78   1 H                                       1.0102966
    77   7 N       79   6 C                                       1.4445612
    79   6 C       80   1 H                                       1.0970930
    79   6 C       81   6 C                                       1.5231744
    81   6 C       82   1 H                                       1.0906063
    81   6 C       83   1 H                                       1.0916342
    84   6 C       85   8 O                                       1.2241697
    84   6 C       86   7 N                                       1.3323734
    86   7 N       87   1 H                                       1.0095530
    86   7 N       88   1 H                                       1.0075686
    89   6 C       90   8 O                                       1.2262145
    89   6 C       91   7 N                                       1.3334075
    91   7 N       92   1 H                                       1.0092211
    91   7 N       93   6 C                                       1.4471090
    93   6 C       94   1 H                                       1.0918317
    93   6 C       95   6 C                                       1.5206013
    95   6 C       96   1 H                                       1.0910347
    95   6 C       97   1 H                                       1.0899647
    99   6 C      100   8 O                                       1.2226096
    99   6 C      101   7 N                                       1.3339688
   101   7 N      102   1 H                                       1.0127860
   101   7 N      103   6 C                                       1.4474587
   103   6 C      104   1 H                                       1.0986070
   105   6 C      106   1 H                                       1.0944866
   105   6 C      107   1 H                                       1.0869834
   105   6 C      108   6 C                                       1.4793147
   108   6 C      109   7 N                                       1.3669496
   109   7 N      110   1 H                                       1.0079363
   109   7 N      111   6 C                                       1.3379173
   111   6 C      112   1 H                                       1.0704606
   111   6 C      113   7 N                                       1.3136087
   108   6 C      114   6 C                                       1.3670808
   113   7 N      114   6 C                                       1.3650670
   114   6 C      115   1 H                                       1.0681867
   116   6 C      117   8 O                                       1.2224496
   116   6 C      118   7 N                                       1.3450010
   118   7 N      119   1 H                                       1.0105909
   118   7 N      120   6 C                                       1.4385583
   120   6 C      121   1 H                                       1.0932287
   120   6 C      122   6 C                                       1.5353017
   122   6 C      123   1 H                                       1.0919549
   122   6 C      124   1 H                                       1.0914861
   125   6 C      126   8 O                                       1.2223080
   125   6 C      127   7 N                                       1.3311776
   127   7 N      128   1 H                                       1.0079019
   127   7 N      129   1 H                                       1.0055129
   130   6 C      131   8 O                                       1.1815253
   132   7 N      134   6 C                                       1.3382022
   134   6 C      135   1 H                                       1.0893757
   136   6 C      137   1 H                                       1.0883593
   136   6 C      138   1 H                                       1.0901392
   136   6 C      139   6 C                                       1.5316806
   139   6 C      140   1 H                                       1.0909447
   139   6 C      141   1 H                                       1.0890135
   139   6 C      142   6 C                                       1.5308616
   142   6 C      143   1 H                                       1.0951368
   142   6 C      144   1 H                                       1.0948268
   142   6 C      145   7 N                                       1.4494386
   145   7 N      146   1 H                                       1.0079498
   145   7 N      147   6 C                                       1.3312695
   147   6 C      148   7 N                                       1.3271470
   148   7 N      149   1 H                                       1.0042036
   148   7 N      150   1 H                                       1.0055541
   147   6 C      151   7 N                                       1.3296650
   151   7 N      152   1 H                                       1.0050635
   151   7 N      153   1 H                                       1.0056026
   154   6 C      155   8 O                                       1.1585439
   156   7 N      158   6 C                                       1.4170907
   158   6 C      159   1 H                                       1.0951932
   160   6 C      161   1 H                                       1.0953002
   160   6 C      162   1 H                                       1.0945484
   160   6 C      163   8 O                                       1.3953375
   163   8 O      164   1 H                                       0.9684113
   165   6 C      166   8 O                                       1.2309878
   165   6 C      167   7 N                                       1.3380479
   167   7 N      168   1 H                                       1.0157665
   167   7 N      169   6 C                                       1.4439691
   169   6 C      170   1 H                                       1.0960572
   171   6 C      172   1 H                                       1.1048844
   171   6 C      173   6 C                                       1.5243268
   173   6 C      174   1 H                                       1.0882488
   173   6 C      175   1 H                                       1.0847013
   173   6 C      176   1 H                                       1.0862910
   171   6 C      177   8 O                                       1.4091276
   177   8 O      178   1 H                                       0.9700242
   179   6 C      180   8 O                                       1.2309168
   179   6 C      181   7 N                                       1.3391720
   181   7 N      182   1 H                                       1.0171157
   181   7 N      183   6 C                                       1.4431969
   183   6 C      184   1 H                                       1.1023436
   185   6 C      186   1 H                                       1.0871639
   185   6 C      187   1 H                                       1.0965320
   189   6 C      190   8 O                                       1.2282634
   189   6 C      191   7 N                                       1.3260678
   191   7 N      192   1 H                                       1.0118354
   191   7 N      193   6 C                                       1.4349661
   193   6 C      194   1 H                                       1.0914961
   195   6 C      196   1 H                                       1.0991867
   195   6 C      197   1 H                                       1.0855320
   195   6 C      198   8 O                                       1.4127700
   198   8 O      199   1 H                                       0.9691403
   200   6 C      201   8 O                                       1.2204340
   200   6 C      202   7 N                                       1.3312454
   202   7 N      203   1 H                                       1.0169528
   202   7 N      204   6 C                                       1.4436313
   204   6 C      205   1 H                                       1.0905985
   204   6 C      206   6 C                                       1.5331791
   206   6 C      207   1 H                                       1.0857328
   206   6 C      208   1 H                                       1.0870918
   206   6 C      209   1 H                                       1.0868250
   210   6 C      211   8 O                                       1.1867179
   212   7 N      214   6 C                                       1.4134206
   214   6 C      215   1 H                                       1.0937914
   216   6 C      217   1 H                                       1.0905826
   216   6 C      218   1 H                                       1.0931582
   216   6 C      219   6 C                                       1.5150947
   219   6 C      220   1 H                                       1.0948132
   219   6 C      221   6 C                                       1.5265883
   221   6 C      222   1 H                                       1.0914223
   221   6 C      223   1 H                                       1.0833921
   221   6 C      224   1 H                                       1.0836751
   219   6 C      225   6 C                                       1.5207576
   225   6 C      226   1 H                                       1.0882093
   225   6 C      227   1 H                                       1.0828886
   225   6 C      228   1 H                                       1.0866985
   229   6 C      230   8 O                                       1.2229467
   229   6 C      231   7 N                                       1.3296543
   231   7 N      232   1 H                                       1.0086967
   231   7 N      233   6 C                                       1.4360902
   233   6 C      234   1 H                                       1.0900020
   233   6 C      235   6 C                                       1.5280070
   235   6 C      236   1 H                                       1.0904105
   235   6 C      237   1 H                                       1.0930187
   235   6 C      238   6 C                                       1.5208330
   238   6 C      239   1 H                                       1.0916319
   238   6 C      240   6 C                                       1.5304226
   240   6 C      241   1 H                                       1.0858299
   240   6 C      242   1 H                                       1.0849192
   240   6 C      243   1 H                                       1.0863160
   238   6 C      244   6 C                                       1.5251432
   244   6 C      245   1 H                                       1.0889478
   244   6 C      246   1 H                                       1.0800446
   244   6 C      247   1 H                                       1.0886475
   248   6 C      249   8 O                                       1.2315980
   248   6 C      250   7 N                                       1.3287343
   250   7 N      251   1 H                                       1.0120475
   250   7 N      252   6 C                                       1.4430600
   252   6 C      253   1 H                                       1.0895757
   252   6 C      254   6 C                                       1.5248781
   254   6 C      255   1 H                                       1.0832452
   254   6 C      256   1 H                                       1.0943655
   254   6 C      257   6 C                                       1.5165949
   257   6 C      258   1 H                                       1.0870096
   257   6 C      259   1 H                                       1.0927101
   263   6 C      264   8 O                                       1.2248795
   263   6 C      265   7 N                                       1.3237330
   265   7 N      266   1 H                                       1.0135907
   265   7 N      267   6 C                                       1.4377419
   267   6 C      268   1 H                                       1.0959579
   267   6 C      269   6 C                                       1.5305859
   269   6 C      270   1 H                                       1.0925434
   269   6 C      271   1 H                                       1.0893422
   272   6 C      273   6 C                                       1.3885018
   273   6 C      274   1 H                                       1.0793723
   273   6 C      275   6 C                                       1.3826474
   275   6 C      276   1 H                                       1.0777939
   275   6 C      277   6 C                                       1.3836155
   277   6 C      278   1 H                                       1.0751274
   277   6 C      279   6 C                                       1.3854599
   279   6 C      280   1 H                                       1.0759148
   272   6 C      281   6 C                                       1.3862548
   279   6 C      281   6 C                                       1.3785370
   281   6 C      282   1 H                                       1.0831334
   283   6 C      284   8 O                                       1.2305932
   283   6 C      285   7 N                                       1.3226567
   285   7 N      286   1 H                                       1.0093841
   285   7 N      287   6 C                                       1.4325422
   287   6 C      288   1 H                                       1.0933721
   289   6 C      290   1 H                                       1.0969858
   289   6 C      291   6 C                                       1.5213417
   291   6 C      292   1 H                                       1.0881485
   291   6 C      293   1 H                                       1.0849324
   291   6 C      294   1 H                                       1.0866785
   289   6 C      295   6 C                                       1.5260816
   295   6 C      296   1 H                                       1.0886882
   295   6 C      297   1 H                                       1.0847634
   295   6 C      298   1 H                                       1.0895316
   299   6 C      300   8 O                                       1.2177351
   299   6 C      301   7 N                                       1.3349114
   301   7 N      302   1 H                                       1.0139462
   301   7 N      303   6 C                                       1.4296292
   303   6 C      304   1 H                                       1.0918196
   305   6 C      306   1 H                                       1.0997906
   305   6 C      307   6 C                                       1.5069035
   307   6 C      308   1 H                                       1.0857499
   307   6 C      309   1 H                                       1.0869652
   307   6 C      310   1 H                                       1.0860657
   305   6 C      311   8 O                                       1.3956930
   311   8 O      312   1 H                                       0.9639613 (min)
   313   6 C      314   8 O                                       1.1869238
    98  16 S      315  29 Cu                                      2.1327004
   188  16 S      315  29 Cu                                      2.1681110 (max)

 * 7 distinct bonds (by element types)

   Z      Z             #   av. dist./Å        max./Å        min./Å
   1 H    6 C         114     1.0889515     1.1048844     1.0681867
   6 C    6 C          45     1.4653670     1.5401395     1.3624682
   1 H    7 N          23     1.0099599     1.0171157     1.0042036
   6 C    7 N          46     1.3791058     1.4494386     1.3042792
   1 H    8 O           6     0.9682648     0.9711501     0.9639613
   6 C    8 O          28     1.2519536     1.4136834     1.1585439
  16 S   29 Cu          2     2.1504057     2.1681110     2.1327004


optimized geometry written to: xtbopt.xyz


           -------------------------------------------------
          | TOTAL ENERGY             -517.214676941005 Eh   |
          | GRADIENT NORM               0.001176584892 Eh/α |
          | HOMO-LUMO GAP               0.017574061006 eV   |
           -------------------------------------------------

------------------------------------------------------------------------
 * finished run on 2023/12/05 at 00:03:32.205     
------------------------------------------------------------------------
 total:
 * wall-time:     0 d,  0 h,  2 min,  8.227 sec
 *  cpu-time:     0 d,  0 h, 48 min,  4.655 sec
 * ratio c/w:    22.496 speedup
 SCF:
 * wall-time:     0 d,  0 h,  0 min, 15.119 sec
 *  cpu-time:     0 d,  0 h,  5 min, 52.970 sec
 * ratio c/w:    23.346 speedup
 ANC optimizer:
 * wall-time:     0 d,  0 h,  1 min, 52.904 sec
 *  cpu-time:     0 d,  0 h, 42 min,  7.363 sec
 * ratio c/w:    22.385 speedup
