      -----------------------------------------------------------      
     |                   =====================                   |     
     |                           x T B                           |     
     |                   =====================                   |     
     |                         S. Grimme                         |     
     |          Mulliken Center for Theoretical Chemistry        |     
     |                    University of Bonn                     |     
      -----------------------------------------------------------      

   * xtb version 6.6.1 (8d0f1dd) compiled by 'conda@1efc2f54142f' on 2023-08-01

   xtb is free software: you can redistribute it and/or modify it under
   the terms of the GNU Lesser General Public License as published by
   the Free Software Foundation, either version 3 of the License, or
   (at your option) any later version.
   
   xtb is distributed in the hope that it will be useful,
   but WITHOUT ANY WARRANTY; without even the implied warranty of
   MERCHANTABILITY or FITNESS FOR A PARTICULAR PURPOSE.  See the
   GNU Lesser General Public License for more details.
   
   Cite this work as:
   * C. Bannwarth, E. Caldeweyher, S. Ehlert, A. Hansen, P. Pracht,
     J. Seibert, S. Spicher, S. Grimme, WIREs Comput. Mol. Sci., 2020, 11,
     e01493. DOI: 10.1002/wcms.1493
   
   for GFN2-xTB:
   * C. Bannwarth, S. Ehlert and S. Grimme., J. Chem. Theory Comput., 2019,
     15, 1652-1671. DOI: 10.1021/acs.jctc.8b01176
   for GFN1-xTB:
   * S. Grimme, C. Bannwarth, P. Shushkov, J. Chem. Theory Comput., 2017,
     13, 1989-2009. DOI: 10.1021/acs.jctc.7b00118
   for GFN0-xTB:
   * P. Pracht, E. Caldeweyher, S. Ehlert, S. Grimme, ChemRxiv, 2019, preprint.
     DOI: 10.26434/chemrxiv.8326202.v1
   for GFN-FF:
   * S. Spicher and S. Grimme, Angew. Chem. Int. Ed., 2020, 59, 15665-15673.
     DOI: 10.1002/anie.202004239
   
   for ALPB and GBSA implicit solvation:
   * S. Ehlert, M. Stahn, S. Spicher, S. Grimme, J. Chem. Theory Comput.,
     2021, 17, 4250-4261. DOI: 10.1021/acs.jctc.1c00471
   
   for DFT-D4:
   * E. Caldeweyher, C. Bannwarth and S. Grimme, J. Chem. Phys., 2017,
     147, 034112. DOI: 10.1063/1.4993215
   * E. Caldeweyher, S. Ehlert, A. Hansen, H. Neugebauer, S. Spicher,
     C. Bannwarth and S. Grimme, J. Chem. Phys., 2019, 150, 154122.
     DOI: 10.1063/1.5090222
   * E. Caldeweyher, J.-M. Mewes, S. Ehlert and S. Grimme, Phys. Chem. Chem. Phys.
     2020, 22, 8499-8512. DOI: 10.1039/D0CP00502A
   
   for sTDA-xTB:
   * S. Grimme and C. Bannwarth, J. Chem. Phys., 2016, 145, 054103.
     DOI: 10.1063/1.4959605
   
   in the mass-spec context:
   * V. Asgeirsson, C. Bauer and S. Grimme, Chem. Sci., 2017, 8, 4879.
     DOI: 10.1039/c7sc00601b
   * J. Koopman and S. Grimme, ACS Omega 2019, 4, 12, 15120-15133.
     DOI: 10.1021/acsomega.9b02011
   
   for metadynamics refer to:
   * S. Grimme, J. Chem. Theory Comput., 2019, 155, 2847-2862
     DOI: 10.1021/acs.jctc.9b00143
   
   for SPH calculations refer to:
   * S. Spicher and S. Grimme, J. Chem. Theory Comput., 2021, 17, 1701-1714
     DOI: 10.1021/acs.jctc.0c01306
   
   with help from (in alphabetical order)
   P. Atkinson, C. Bannwarth, F. Bohle, G. Brandenburg, E. Caldeweyher
   M. Checinski, S. Dohm, S. Ehlert, S. Ehrlich, I. Gerasimov, C. Hölzer
   A. Katbashev, J. Koopman, C. Lavigne, S. Lehtola, F. März, M. Müller,
   F. Musil, H. Neugebauer, J. Pisarek, C. Plett, P. Pracht, F. Pultar,
   J. Seibert, P. Shushkov, S. Spicher, M. Stahn, M. Steiner, T. Strunk,
   J. Stückrath, T. Rose, and J. Unsleber
   
 * started run on 2024/01/20 at 14:29:59.391     

           -------------------------------------------------
          |                Calculation Setup                |
           -------------------------------------------------

          program call               : xtb initial.xyz --opt loose --gfn 2 --alpb water --input opt.in
          coordinate file            : initial.xyz
          omp threads                :                    24

   ID    Z sym.   atoms
    1    7 N      1, 36, 37, 45, 56, 77, 86, 91, 101, 109, 113, 118, 127,
                  132, 145, 148, 151, 156, 167, 181, 191, 202, 212, 231, 250,
                  265, 285, 301
    2    1 H      2, 4, 6, 7, 9, 11-13, 15-17, 29-33, 41, 42, 46, 47, 50-53,
                  55, 57, 59, 61, 62, 65, 67, 70, 72, 74, 78, 80, 82, 83, 87,
                  88, 92, 94, 96, 97, 102, 104, 106, 107, 110, 112, 115, 119,
                  121, 123, 124, 128, 129, 133, 135, 137, 138, 140, 141, 143,
                  144, 146, 149, 150, 152, 153, 157, 159, 161, 162, 164, 168,
                  170, 172, 174-176, 178, 182, 184, 186, 187, 192, 194, 196,
                  197, 199, 203, 205, 207-209, 213, 215, 217, 218, 220,
                  222-224, 226-228, 232, 234, 236, 237, 239, 241-243,
                  245-247, 251, 253, 255, 256, 258, 259, 266, 268, 270, 271,
                  274, 276, 278, 280, 282, 286, 288, 290, 292-294, 296-298,
                  302, 304, 306, 308-310, 312
    3    6 C      3, 5, 8, 10, 14, 18, 20-28, 38-40, 43, 48, 49, 58, 60, 63,
                  64, 66, 68, 71, 73, 75, 79, 81, 84, 89, 93, 95, 99, 103,
                  105, 108, 111, 114, 116, 120, 122, 125, 130, 134, 136, 139,
                  142, 147, 154, 158, 160, 165, 169, 171, 173, 179, 183, 185,
                  189, 193, 195, 200, 204, 206, 210, 214, 216, 219, 221, 225,
                  229, 233, 235, 238, 240, 244, 248, 252, 254, 257, 260, 263,
                  267, 269, 272, 273, 275, 277, 279, 281, 283, 287, 289, 291,
                  295, 299, 303, 305, 307, 313
    4    8 O      19, 34, 35, 44, 54, 69, 76, 85, 90, 100, 117, 126, 131,
                  155, 163, 166, 177, 180, 190, 198, 201, 211, 230, 249, 261,
                  262, 264, 284, 300, 311, 314
    5   16 S      98, 188
    6   29 Cu     315

molecular fragmentation (1/2 indicates fragments):
111111111111111111122222222222222222222222222222222222222222222222222222
222222222222222222222222222222222222222222222222222222222222222222222222
222222222222222222222222222222222222222222222222222222222222222222222222
222222222222222222222222222222222222222222222222222222222222222222222222
222222222222222222222222222
# atoms in fragment 1/2:    19   296
 fragment masses (1/2) :      113.16     2301.99
CMA distance (Bohr)    :  18.006
constraining FC (au)   :  0.5000

           -------------------------------------------------
          |                 G F N 2 - x T B                 |
           -------------------------------------------------

        Reference                      10.1021/acs.jctc.8b01176
      * Hamiltonian:
        H0-scaling (s, p, d)           1.850000    2.230000    2.230000
        zeta-weighting                 0.500000
      * Dispersion:
        s8                             2.700000
        a1                             0.520000
        a2                             5.000000
        s9                             5.000000
      * Repulsion:
        kExp                           1.500000    1.000000
        rExp                           1.000000
      * Coulomb:
        alpha                          2.000000
        third order                    shell-resolved
        anisotropic                    true
        a3                             3.000000
        a5                             4.000000
        cn-shift                       1.200000
        cn-exp                         4.000000
        max-rad                        5.000000

      * Solvation model:               ALPB
        Solvent                        water
        Parameter file                 internal GFN2-xTB/ALPB
        Dielectric constant                8.0200E+01
        Reference state                gsolv [1 M gas/solution]
        Free energy shift                  1.0808E-03 Eh       6.7819E-01 kcal/mol
        Temperature                        2.9815E+02 K
        Density                            1.0000E+00 kg/L
        Solvent mass                       1.8000E+01 g/mol
        Interaction kernel             P16
        Born radius scaling (c1)           1.4744E+00
        Born radii integrator          GBOBC
        Born offset                        0.0000E+00 a0       0.0000E+00 AA
        H-bond correction              true
        Ion screening                  false
        Surface tension                    1.0000E-05 Eh       1.5569E+01 dyn/cm
        Grid points                               230 per atom

          ...................................................
          :                      SETUP                      :
          :.................................................:
          :  # basis functions                 831          :
          :  # atomic orbitals                 828          :
          :  # shells                          484          :
          :  # electrons                       916          :
          :  max. iterations                   250          :
          :  Hamiltonian                  GFN2-xTB          :
          :  restarted?                      false          :
          :  GBSA solvation                   true          :
          :  PC potential                    false          :
          :  electronic temp.          300.0000000     K    :
          :  accuracy                    1.0000000          :
          :  -> integral cutoff          0.2500000E+02      :
          :  -> integral neglect         0.1000000E-07      :
          :  -> SCF convergence          0.1000000E-05 Eh   :
          :  -> wf. convergence          0.1000000E-03 e    :
          :  Broyden damping             0.4000000          :
          ...................................................

 iter      E             dE          RMSdq      gap      omega  full diag
   1   -521.0272415 -0.521027E+03  0.471E+00    0.85       0.0  T
   2   -514.0371170  0.699012E+01  0.536E+00    0.09       1.0  T
   3   -521.9930463 -0.795593E+01  0.278E+00    1.20       1.0  T
   4   -522.3985882 -0.405542E+00  0.183E+00    0.15       1.0  T
   5   -521.7706223  0.627966E+00  0.307E+00    0.15       1.0  T
   6   -521.9380682 -0.167446E+00  0.285E+00    0.10       1.0  T
   7   -522.0984948 -0.160427E+00  0.261E+00    0.18       1.0  T
   8   -521.9184943  0.180000E+00  0.277E+00    0.14       1.0  T
   9   -522.4456026 -0.527108E+00  0.221E+00    0.00       1.0  T
  10   -522.3835852  0.620174E-01  0.220E+00    0.01       1.0  T
  11   -522.0572111  0.326374E+00  0.212E+00    0.07       1.0  T
  12   -522.1404366 -0.832255E-01  0.211E+00    0.02       1.0  T
  13   -522.0492568  0.911798E-01  0.221E+00    0.05       1.0  T
  14   -521.7856506  0.263606E+00  0.243E+00    0.36       1.0  T
  15   -521.7625860  0.230646E-01  0.246E+00    0.41       1.0  T
  16   -522.3660152 -0.603429E+00  0.196E+00    0.04       1.0  T
  17   -522.5085950 -0.142580E+00  0.178E+00    0.03       1.0  T
  18   -522.2729088  0.235686E+00  0.223E+00    0.05       1.0  T
  19   -522.2792742 -0.636537E-02  0.216E+00    0.04       1.0  T
  20   -522.4013756 -0.122101E+00  0.197E+00    0.01       1.0  T
  21   -522.3866134  0.147622E-01  0.200E+00    0.03       1.0  T
  22   -522.6133746 -0.226761E+00  0.154E+00    0.02       1.0  T
  23   -522.4783399  0.135035E+00  0.175E+00    0.01       1.0  T
  24   -522.3821957  0.961442E-01  0.196E+00    0.02       1.0  T
  25   -522.5034501 -0.121254E+00  0.166E+00    0.01       1.0  T
  26   -522.4483731  0.550770E-01  0.164E+00    0.00       1.0  T
  27   -522.4730579 -0.246848E-01  0.160E+00    0.12       1.0  T
  28   -522.5975668 -0.124509E+00  0.145E+00    0.06       1.0  T
  29   -522.8016186 -0.204052E+00  0.122E+00    0.01       1.0  T
  30   -522.7492430  0.523756E-01  0.126E+00    0.02       1.0  T
  31   -522.7237087  0.255343E-01  0.127E+00    0.02       1.0  T
  32   -522.8237864 -0.100078E+00  0.112E+00    0.01       1.0  T
  33   -522.8147041  0.908225E-02  0.113E+00    0.00       1.0  T
  34   -522.8286790 -0.139749E-01  0.111E+00    0.00       1.0  T
  35   -522.9335324 -0.104853E+00  0.943E-01    0.03       1.0  T
  36   -522.9149943  0.185380E-01  0.963E-01    0.01       1.0  T
  37   -522.8962062  0.187881E-01  0.987E-01    0.00       1.0  T
  38   -523.0774105 -0.181204E+00  0.657E-01    0.00       1.0  T
  39   -523.0397903  0.376201E-01  0.736E-01    0.03       1.0  T
  40   -523.0266639  0.131264E-01  0.776E-01    0.01       1.0  T
  41   -523.0579151 -0.312512E-01  0.685E-01    0.01       1.0  T
  42   -522.8776750  0.180240E+00  0.992E-01    0.00       1.0  T
  43   -522.9543257 -0.766507E-01  0.881E-01    0.00       1.0  T
  44   -523.0352501 -0.809244E-01  0.725E-01    0.01       1.0  T
  45   -523.0261411  0.910908E-02  0.727E-01    0.00       1.0  T
  46   -522.9782192  0.479218E-01  0.846E-01    0.01       1.0  T
  47   -523.0341516 -0.559324E-01  0.702E-01    0.04       1.0  T
  48   -522.9880329  0.461187E-01  0.828E-01    0.01       1.0  T
  49   -523.0492872 -0.612543E-01  0.677E-01    0.01       1.0  T
  50   -523.1492444 -0.999573E-01  0.403E-01    0.03       1.0  T
  51   -523.1956839 -0.464395E-01  0.179E-01    0.00       1.0  T
  52   -523.1831060  0.125779E-01  0.261E-01    0.00       1.0  T
  53   -523.2015679 -0.184619E-01  0.111E-01    0.02       1.0  T
  54   -523.1823136  0.192542E-01  0.265E-01    0.00       1.0  T
  55   -523.2032104 -0.208968E-01  0.872E-02    0.02       1.0  T
  56   -523.2045562 -0.134582E-02  0.584E-02    0.02       1.0  T
  57   -523.2046282 -0.719819E-04  0.559E-02    0.02       1.0  T
  58   -523.2041991  0.429081E-03  0.667E-02    0.01       1.0  T
  59   -523.2050856 -0.886511E-03  0.435E-02    0.01       1.0  T
  60   -523.2055629 -0.477251E-03  0.206E-02    0.02       1.0  T
  61   -523.2056173 -0.543822E-04  0.144E-02    0.02       1.0  T
  62   -523.2056302 -0.129893E-04  0.120E-02    0.02       1.0  T
  63   -523.2056541 -0.238446E-04  0.755E-03    0.02       1.0  T
  64   -523.2056502  0.393598E-05  0.761E-03    0.02       1.0  T
  65   -523.2056592 -0.900245E-05  0.565E-03    0.02       1.0  T
  66   -523.2056674 -0.824424E-05  0.277E-03    0.02       2.0  T
  67   -523.2056695 -0.206013E-05  0.127E-03    0.02       4.4  T
  68   -523.2056696 -0.121508E-06  0.111E-03    0.02       5.1  T
  69   -523.2056699 -0.326296E-06  0.579E-04    0.02       9.7  T
  70   -523.2056700 -0.948693E-07  0.235E-04    0.02      24.0  T

   *** convergence criteria satisfied after 70 iterations ***

         #    Occupation            Energy/Eh            Energy/eV
      -------------------------------------------------------------
         1        2.0000           -0.7885501             -21.4575
       ...           ...                  ...                  ...
       452        1.9811           -0.3449513              -9.3866
       453        1.8081           -0.3426619              -9.3243
       454        1.5375           -0.3416722              -9.2974
       455        1.4032           -0.3413433              -9.2884
       456        1.3904           -0.3413146              -9.2876
       457        1.3145           -0.3411497              -9.2832
       458        1.2949           -0.3411085              -9.2820 (HOMO)
       459        0.9489           -0.3404340              -9.2637 (LUMO)
       460        0.9064           -0.3403527              -9.2615
       461        0.8061           -0.3401580              -9.2562
       462        0.6090           -0.3397463              -9.2450
       463                         -0.3133244              -8.5260
       ...                                ...                  ...
       828                          0.7567045              20.5910
      -------------------------------------------------------------
                  HL-Gap            0.0006745 Eh            0.0184 eV
             Fermi-level           -0.3405311 Eh           -9.2663 eV

 SCC (total)                   0 d,  0 h,  0 min, 24.762 sec
 SCC setup                      ...        0 min,  0.057 sec (  0.229%)
 Dispersion                     ...        0 min,  0.037 sec (  0.148%)
 classical contributions        ...        0 min,  0.032 sec (  0.131%)
 integral evaluation            ...        0 min,  0.059 sec (  0.240%)
 iterations                     ...        0 min, 24.199 sec ( 97.726%)
 molecular gradient             ...        0 min,  0.365 sec (  1.473%)
 printout                       ...        0 min,  0.013 sec (  0.053%)

         :::::::::::::::::::::::::::::::::::::::::::::::::::::
         ::                     SUMMARY                     ::
         :::::::::::::::::::::::::::::::::::::::::::::::::::::
         :: total energy            -517.154955688118 Eh    ::
         :: total w/o Gsasa/hb      -517.101967767927 Eh    ::
         :: gradient norm              0.119438377355 Eh/a0 ::
         :: HOMO-LUMO gap              0.018355312091 eV    ::
         ::.................................................::
         :: SCC energy              -523.205669999603 Eh    ::
         :: -> isotropic ES            2.125277766547 Eh    ::
         :: -> anisotropic ES         -0.148611693584 Eh    ::
         :: -> anisotropic XC          0.181323581700 Eh    ::
         :: -> dispersion             -0.432861147628 Eh    ::
         :: -> Gsolv                  -0.852763076047 Eh    ::
         ::    -> Gelec               -0.799775155855 Eh    ::
         ::    -> Gsasa                0.002370241378 Eh    ::
         ::    -> Ghb                 -0.056438921268 Eh    ::
         ::    -> Gshift               0.001080759698 Eh    ::
         :: repulsion energy           6.014811182489 Eh    ::
         :: add. restraining           0.000000000000 Eh    ::
         :: total charge              -2.000000000000 e     ::
         :::::::::::::::::::::::::::::::::::::::::::::::::::::

      ----------------------------------------------------------- 
     |                   =====================                   |
     |                        A N C O P T                        |
     |                   =====================                   |
     |               Approximate Normal Coordinate               |
     |                Rational Function Optimizer                |
      ----------------------------------------------------------- 

          ...................................................
          :                      SETUP                      :
          :.................................................:
          :   optimization level             loose          :
          :   max. optcycles                   630          :
          :   ANC micro-cycles                  20          :
          :   degrees of freedom               939          :
          :.................................................:
          :   RF solver                   davidson          :
          :   write xtbopt.log                true          :
          :   linear?                        false          :
          :   energy convergence         0.5000000E-04 Eh   :
          :   grad. convergence          0.4000000E-02 Eh/α :
          :   maxmium RF displ.          1.0000000          :
          :   Hlow (freq-cutoff)         0.1000000E-01      :
          :   Hmax (freq-cutoff)         5.0000000          :
          :   S6 in model hess.         20.0000000          :
          ...................................................

generating ANC from model Hessian ...
Using Lindh-Hessian (1995)
 Shifting diagonal of input Hessian by    1.0006594007934622E-002
 Lowest  eigenvalues of input Hessian
    0.010000    0.000000    0.000000    0.000000    0.000000    0.000000
    0.000000    0.010013    0.010086    0.013670    0.015159    0.015406
    0.016082    0.017233    0.017469    0.017825    0.017941    0.018446
 Highest eigenvalues
    2.710170    2.719025    2.732188    2.735236    2.765449    3.052110


........................................................................
.............................. CYCLE    1 ..............................
........................................................................

 iter      E             dE          RMSdq      gap      omega  full diag
   1   -523.2056700 -0.523206E+03  0.253E-04    0.02       0.0  T
   2   -523.2056323  0.376872E-04  0.104E-02    0.02       1.0  T
   3   -523.2056698 -0.374892E-04  0.861E-04    0.02       6.5  T
   4   -523.2056698 -0.185651E-07  0.767E-04    0.02       7.3  T
   5   -523.2056698  0.613805E-07  0.100E-03    0.02       5.6  T
   6   -523.2056699 -0.145926E-06  0.615E-04    0.02       9.2  T
     SCC iter.                  ...        0 min,  1.911 sec
     gradient                   ...        0 min,  0.386 sec
 * total energy  :  -517.1549556 Eh     change        0.9843211E-07 Eh
   gradient norm :     0.1194481 Eh/α   predicted     0.0000000E+00 (-100.00%)
   displ. norm   :     0.2753046 α      lambda       -0.1944271E-01
   maximum displ.:     0.0417085 α      in ANC's #45, #53, #34, ...

........................................................................
.............................. CYCLE    2 ..............................
........................................................................

 iter      E             dE          RMSdq      gap      omega  full diag
   1   -523.1984469 -0.523198E+03  0.301E-01    0.01       0.0  T
   2   -522.4021026  0.796344E+00  0.158E+00    0.16       1.0  T
   3   -522.2907651  0.111337E+00  0.192E+00    0.04       1.0  T
   4   -522.9187846 -0.628020E+00  0.976E-01    0.02       1.0  T
   5   -522.9397478 -0.209631E-01  0.907E-01    0.02       1.0  T
   6   -522.9604502 -0.207024E-01  0.866E-01    0.01       1.0  T
   7   -523.0973668 -0.136917E+00  0.611E-01    0.01       1.0  T
   8   -523.1365255 -0.391587E-01  0.511E-01    0.01       1.0  T
   9   -523.0980292  0.384963E-01  0.629E-01    0.02       1.0  T
  10   -523.0759181  0.221111E-01  0.659E-01    0.00       1.0  T
  11   -523.0425081  0.334100E-01  0.728E-01    0.02       1.0  T
  12   -523.2117882 -0.169280E+00  0.232E-01    0.00       1.0  T
  13   -523.1487846  0.630035E-01  0.488E-01    0.01       1.0  T
  14   -523.2127925 -0.640079E-01  0.221E-01    0.01       1.0  T
  15   -523.2164033 -0.361078E-02  0.202E-01    0.00       1.0  T
  16   -523.2183536 -0.195038E-02  0.183E-01    0.02       1.0  T
  17   -523.2271872 -0.883351E-02  0.942E-02    0.01       1.0  T
  18   -523.2299293 -0.274213E-02  0.329E-02    0.02       1.0  T
  19   -523.2302996 -0.370328E-03  0.425E-03    0.02       1.3  T
  20   -523.2302976  0.197730E-05  0.489E-03    0.02       1.2  T
  21   -523.2303043 -0.663167E-05  0.231E-03    0.02       2.4  T
  22   -523.2303013  0.300281E-05  0.352E-03    0.02       1.6  T
  23   -523.2303049 -0.365921E-05  0.149E-03    0.02       3.8  T
  24   -523.2303053 -0.382893E-06  0.110E-03    0.02       5.1  T
  25   -523.2303055 -0.240232E-06  0.677E-04    0.02       8.3  T
  26   -523.2303057 -0.135092E-06  0.276E-04    0.02      20.4  T
     SCC iter.                  ...        0 min,  9.213 sec
     gradient                   ...        0 min,  0.402 sec
 * total energy  :  -517.1666864 Eh     change       -0.1173084E-01 Eh
   gradient norm :     0.0320006 Eh/α   predicted    -0.1046269E-01 ( -10.81%)
   displ. norm   :     0.2002788 α      lambda       -0.2305601E-02
   maximum displ.:     0.0570544 α      in ANC's #46, #45, #3, ...

........................................................................
.............................. CYCLE    3 ..............................
........................................................................

 iter      E             dE          RMSdq      gap      omega  full diag
   1   -523.2205084 -0.523221E+03  0.225E-01    0.00       0.0  T
   2   -522.5056185  0.714890E+00  0.146E+00    0.10       1.0  T
   3   -522.4927501  0.128683E-01  0.163E+00    0.04       1.0  T
   4   -522.9732490 -0.480499E+00  0.901E-01    0.04       1.0  T
   5   -522.9712584  0.199059E-02  0.879E-01    0.03       1.0  T
   6   -523.1345840 -0.163326E+00  0.532E-01    0.01       1.0  T
   7   -523.1705913 -0.360073E-01  0.436E-01    0.02       1.0  T
   8   -523.2173368 -0.467455E-01  0.247E-01    0.01       1.0  T
   9   -523.1503224  0.670144E-01  0.523E-01    0.00       1.0  T
  10   -523.1757578 -0.254354E-01  0.421E-01    0.01       1.0  T
  11   -523.1913362 -0.155784E-01  0.368E-01    0.01       1.0  T
  12   -523.2328585 -0.415223E-01  0.126E-01    0.01       1.0  T
  13   -523.2022549  0.306037E-01  0.310E-01    0.00       1.0  T
  14   -523.2301625 -0.279076E-01  0.153E-01    0.02       1.0  T
  15   -523.2332836 -0.312104E-02  0.119E-01    0.01       1.0  T
  16   -523.2382131 -0.492951E-02  0.199E-02    0.02       1.0  T
  17   -523.2379406  0.272457E-03  0.345E-02    0.02       1.0  T
  18   -523.2382998 -0.359196E-03  0.122E-02    0.02       1.0  T
  19   -523.2383249 -0.251079E-04  0.891E-03    0.02       1.0  T
  20   -523.2383469 -0.220284E-04  0.431E-03    0.02       1.3  T
  21   -523.2383498 -0.280781E-05  0.336E-03    0.02       1.7  T
  22   -523.2383533 -0.358582E-05  0.116E-03    0.02       4.9  T
  23   -523.2383537 -0.322013E-06  0.603E-04    0.02       9.3  T
  24   -523.2383537  0.250463E-08  0.623E-04    0.02       9.0  T
     SCC iter.                  ...        0 min,  9.819 sec
     gradient                   ...        0 min,  0.388 sec
 * total energy  :  -517.1681070 Eh     change       -0.1420616E-02 Eh
   gradient norm :     0.0093189 Eh/α   predicted    -0.1202711E-02 ( -15.34%)
   displ. norm   :     0.1564169 α      lambda       -0.4813366E-03
   maximum displ.:     0.0653318 α      in ANC's #3, #2, #1, ...

........................................................................
.............................. CYCLE    4 ..............................
........................................................................

 iter      E             dE          RMSdq      gap      omega  full diag
   1   -523.2273891 -0.523227E+03  0.193E-01    0.00       0.0  T
   2   -522.6403010  0.587088E+00  0.131E+00    0.00       1.0  T
   3   -522.4900776  0.150223E+00  0.150E+00    0.11       1.0  T
   4   -522.8965872 -0.406510E+00  0.996E-01    0.05       1.0  T
   5   -523.1117378 -0.215151E+00  0.596E-01    0.01       1.0  T
   6   -523.1710250 -0.592872E-01  0.434E-01    0.01       1.0  T
   7   -523.2066647 -0.356397E-01  0.340E-01    0.01       1.0  T
   8   -523.1531781  0.534866E-01  0.492E-01    0.01       1.0  T
   9   -523.1665212 -0.133431E-01  0.463E-01    0.01       1.0  T
  10   -523.1803860 -0.138648E-01  0.417E-01    0.01       1.0  T
  11   -523.2396598 -0.592738E-01  0.511E-02    0.02       1.0  T
  12   -523.2324465  0.721334E-02  0.151E-01    0.01       1.0  T
  13   -523.2393873 -0.694081E-02  0.602E-02    0.02       1.0  T
  14   -523.2398983 -0.510987E-03  0.390E-02    0.02       1.0  T
  15   -523.2394579  0.440388E-03  0.510E-02    0.02       1.0  T
  16   -523.2403419 -0.884007E-03  0.143E-02    0.02       1.0  T
  17   -523.2404043 -0.624372E-04  0.589E-03    0.02       1.0  T
  18   -523.2404072 -0.284862E-05  0.435E-03    0.02       1.3  T
  19   -523.2404128 -0.565843E-05  0.164E-03    0.02       3.4  T
  20   -523.2404134 -0.555370E-06  0.114E-03    0.02       5.0  T
  21   -523.2404136 -0.232040E-06  0.679E-04    0.02       8.3  T
  22   -523.2404137 -0.570127E-07  0.501E-04    0.02      11.3  T
     SCC iter.                  ...        0 min,  8.960 sec
     gradient                   ...        0 min,  0.385 sec
 * total energy  :  -517.1684416 Eh     change       -0.3345868E-03 Eh
   gradient norm :     0.0062930 Eh/α   predicted    -0.2465623E-03 ( -26.31%)
   displ. norm   :     0.2035260 α      lambda       -0.3348575E-03
   maximum displ.:     0.1091235 α      in ANC's #3, #2, #1, ...

........................................................................
.............................. CYCLE    5 ..............................
........................................................................

 iter      E             dE          RMSdq      gap      omega  full diag
   1   -523.2209125 -0.523221E+03  0.244E-01    0.00       0.0  T
   2   -522.5664441  0.654468E+00  0.139E+00    0.02       1.0  T
   3   -522.4052209  0.161223E+00  0.160E+00    0.14       1.0  T
   4   -522.8663163 -0.461095E+00  0.104E+00    0.01       1.0  T
   5   -523.1139372 -0.247621E+00  0.587E-01    0.01       1.0  T
   6   -523.1177835 -0.384629E-02  0.589E-01    0.00       1.0  T
   7   -523.1744594 -0.566759E-01  0.459E-01    0.01       1.0  T
   8   -523.1771805 -0.272111E-02  0.430E-01    0.01       1.0  T
   9   -523.1598324  0.173481E-01  0.489E-01    0.01       1.0  T
  10   -523.1936132 -0.337809E-01  0.379E-01    0.00       1.0  T
  11   -523.2386550 -0.450417E-01  0.897E-02    0.02       1.0  T
  12   -523.2023048  0.363502E-01  0.331E-01    0.02       1.0  T
  13   -523.2385537 -0.362489E-01  0.908E-02    0.01       1.0  T
  14   -523.2413077 -0.275394E-02  0.365E-02    0.02       1.0  T
  15   -523.2383179  0.298978E-02  0.934E-02    0.02       1.0  T
  16   -523.2411763 -0.285844E-02  0.317E-02    0.02       1.0  T
  17   -523.2415110 -0.334656E-03  0.104E-02    0.02       1.0  T
  18   -523.2415464 -0.353945E-04  0.176E-03    0.02       3.2  T
  19   -523.2415463  0.951477E-07  0.163E-03    0.02       3.5  T
  20   -523.2415459  0.410487E-06  0.198E-03    0.02       2.8  T
  21   -523.2415468 -0.878712E-06  0.111E-03    0.02       5.1  T
  22   -523.2415470 -0.266530E-06  0.611E-04    0.02       9.2  T
  23   -523.2415469  0.172047E-06  0.925E-04    0.02       6.1  T
     SCC iter.                  ...        0 min,  8.280 sec
     gradient                   ...        0 min,  0.390 sec
 * total energy  :  -517.1686792 Eh     change       -0.2375567E-03 Eh
   gradient norm :     0.0067441 Eh/α   predicted    -0.1743667E-03 ( -26.60%)
   displ. norm   :     0.2705808 α      lambda       -0.3172612E-03
   maximum displ.:     0.1630668 α      in ANC's #3, #2, #1, ...

........................................................................
.............................. CYCLE    6 ..............................
........................................................................

 iter      E             dE          RMSdq      gap      omega  full diag
   1   -523.2087974 -0.523209E+03  0.309E-01    0.00       0.0  T
   2   -522.6418039  0.566993E+00  0.133E+00    0.01       1.0  T
   3   -522.4183441  0.223460E+00  0.158E+00    0.11       1.0  T
   4   -522.9298896 -0.511546E+00  0.961E-01    0.01       1.0  T
   5   -523.0835556 -0.153666E+00  0.680E-01    0.00       1.0  T
   6   -523.0369572  0.465984E-01  0.760E-01    0.01       1.0  T
   7   -523.1047384 -0.677812E-01  0.634E-01    0.00       1.0  T
   8   -523.2258678 -0.121129E+00  0.224E-01    0.01       1.0  T
   9   -523.2141843  0.116835E-01  0.285E-01    0.01       1.0  T
  10   -523.1653328  0.488515E-01  0.470E-01    0.00       1.0  T
  11   -523.2403763 -0.750434E-01  0.786E-02    0.02       1.0  T
  12   -523.2238832  0.164931E-01  0.226E-01    0.02       1.0  T
  13   -523.2386331 -0.147499E-01  0.107E-01    0.01       1.0  T
  14   -523.2397945 -0.116143E-02  0.844E-02    0.01       1.0  T
  15   -523.2225107  0.172838E-01  0.230E-01    0.02       1.0  T
  16   -523.2418554 -0.193447E-01  0.361E-02    0.02       1.0  T
  17   -523.2420187 -0.163290E-03  0.292E-02    0.01       1.0  T
  18   -523.2423036 -0.284908E-03  0.942E-03    0.02       1.0  T
  19   -523.2423263 -0.227361E-04  0.524E-03    0.02       1.1  T
  20   -523.2423343 -0.800969E-05  0.211E-03    0.02       2.7  T
  21   -523.2423351 -0.757478E-06  0.168E-03    0.02       3.4  T
  22   -523.2423338  0.128437E-05  0.248E-03    0.02       2.3  T
  23   -523.2423357 -0.190208E-05  0.893E-04    0.02       6.3  T
  24   -523.2423359 -0.198838E-06  0.488E-04    0.02      11.5  T
  25   -523.2423359  0.190721E-07  0.534E-04    0.02      10.6  T
     SCC iter.                  ...        0 min, 10.056 sec
     gradient                   ...        0 min,  0.392 sec
 * total energy  :  -517.1689297 Eh     change       -0.2505467E-03 Eh
   gradient norm :     0.0077922 Eh/α   predicted    -0.1702688E-03 ( -32.04%)
   displ. norm   :     0.4007709 α      lambda       -0.4302323E-03
   maximum displ.:     0.2549416 α      in ANC's #3, #2, #1, ...

........................................................................
.............................. CYCLE    7 ..............................
........................................................................

 iter      E             dE          RMSdq      gap      omega  full diag
   1   -523.1915862 -0.523192E+03  0.382E-01    0.00       0.0  T
   2   -522.6038000  0.587786E+00  0.137E+00    0.00       1.0  T
   3   -522.4703067  0.133493E+00  0.152E+00    0.07       1.0  T
   4   -522.9121572 -0.441851E+00  0.103E+00    0.02       1.0  T
   5   -523.0139939 -0.101837E+00  0.811E-01    0.01       1.0  T
   6   -522.9124720  0.101522E+00  0.977E-01    0.02       1.0  T
   7   -523.0492349 -0.136763E+00  0.744E-01    0.01       1.0  T
   8   -523.1303166 -0.810818E-01  0.580E-01    0.00       1.0  T
   9   -523.2376026 -0.107286E+00  0.126E-01    0.02       1.0  T
  10   -523.1448827  0.927198E-01  0.527E-01    0.02       1.0  T
  11   -523.1969831 -0.521004E-01  0.362E-01    0.00       1.0  T
  12   -523.2205804 -0.235972E-01  0.247E-01    0.00       1.0  T
  13   -523.2309797 -0.103993E-01  0.185E-01    0.01       1.0  T
  14   -523.2111123  0.198674E-01  0.292E-01    0.01       1.0  T
  15   -523.2411720 -0.300597E-01  0.708E-02    0.01       1.0  T
  16   -523.2388049  0.236709E-02  0.106E-01    0.02       1.0  T
  17   -523.2421318 -0.332692E-02  0.486E-02    0.01       1.0  T
  18   -523.2425752 -0.443391E-03  0.336E-02    0.02       1.0  T
  19   -523.2429640 -0.388782E-03  0.970E-03    0.02       1.0  T
  20   -523.2429961 -0.320999E-04  0.286E-03    0.02       2.0  T
  21   -523.2429978 -0.172406E-05  0.191E-03    0.02       2.9  T
  22   -523.2429982 -0.413532E-06  0.153E-03    0.02       3.7  T
  23   -523.2429989 -0.704266E-06  0.499E-04    0.02      11.3  T
  24   -523.2429987  0.249548E-06  0.959E-04    0.02       5.9  T
     SCC iter.                  ...        0 min,  8.412 sec
     gradient                   ...        0 min,  0.382 sec
 * total energy  :  -517.1693042 Eh     change       -0.3744288E-03 Eh
   gradient norm :     0.0089823 Eh/α   predicted    -0.2496710E-03 ( -33.32%)
   displ. norm   :     0.5747183 α      lambda       -0.6449461E-03
   maximum displ.:     0.3825379 α      in ANC's #3, #2, #1, ...

........................................................................
.............................. CYCLE    8 ..............................
........................................................................

 iter      E             dE          RMSdq      gap      omega  full diag
   1   -523.1706140 -0.523171E+03  0.457E-01    0.00       0.0  T
   2   -522.5372332  0.633381E+00  0.148E+00    0.02       1.0  T
   3   -522.4557872  0.814460E-01  0.157E+00    0.08       1.0  T
   4   -522.7787945 -0.323007E+00  0.118E+00    0.00       1.0  T
   5   -522.8968972 -0.118103E+00  0.990E-01    0.00       1.0  T
   6   -522.8419758  0.549214E-01  0.108E+00    0.01       1.0  T
   7   -523.0374310 -0.195455E+00  0.768E-01    0.01       1.0  T
   8   -523.0930711 -0.556402E-01  0.653E-01    0.00       1.0  T
   9   -523.2009211 -0.107850E+00  0.357E-01    0.00       1.0  T
  10   -523.1829442  0.179769E-01  0.433E-01    0.00       1.0  T
  11   -523.0917284  0.912158E-01  0.657E-01    0.00       1.0  T
  12   -523.1015463 -0.981784E-02  0.651E-01    0.00       1.0  T
  13   -523.1964736 -0.949273E-01  0.357E-01    0.01       1.0  T
  14   -523.1435230  0.529505E-01  0.520E-01    0.01       1.0  T
  15   -523.2262332 -0.827102E-01  0.216E-01    0.02       1.0  T
  16   -523.2427450 -0.165118E-01  0.556E-02    0.01       1.0  T
  17   -523.2437430 -0.997957E-03  0.127E-02    0.02       1.0  T
  18   -523.2437026  0.403294E-04  0.160E-02    0.02       1.0  T
  19   -523.2437928 -0.901375E-04  0.432E-03    0.02       1.3  T
  20   -523.2437930 -0.198493E-06  0.365E-03    0.02       1.5  T
  21   -523.2437902  0.278025E-05  0.450E-03    0.02       1.3  T
  22   -523.2437972 -0.701832E-05  0.117E-03    0.02       4.8  T
  23   -523.2437974 -0.192039E-06  0.848E-04    0.02       6.6  T
  24   -523.2437973  0.617468E-07  0.928E-04    0.02       6.1  T
     SCC iter.                  ...        0 min,  7.842 sec
     gradient                   ...        0 min,  0.381 sec
 * total energy  :  -517.1698950 Eh     change       -0.5908778E-03 Eh
   gradient norm :     0.0107326 Eh/α   predicted    -0.4289878E-03 ( -27.40%)
   displ. norm   :     0.7617730 α      lambda       -0.9411598E-03
   maximum displ.:     0.5354353 α      in ANC's #3, #2, #1, ...

........................................................................
.............................. CYCLE    9 ..............................
........................................................................

 iter      E             dE          RMSdq      gap      omega  full diag
   1   -523.1621628 -0.523162E+03  0.491E-01    0.00       0.0  T
   2   -522.2670980  0.895065E+00  0.178E+00    0.04       1.0  T
   3   -522.1792310  0.878670E-01  0.185E+00    0.09       1.0  T
   4   -522.7438443 -0.564613E+00  0.120E+00    0.03       1.0  T
   5   -522.8356513 -0.918070E-01  0.109E+00    0.00       1.0  T
   6   -522.8933543 -0.577030E-01  0.102E+00    0.01       1.0  T
   7   -523.0498726 -0.156518E+00  0.756E-01    0.01       1.0  T
   8   -523.1005358 -0.506632E-01  0.639E-01    0.02       1.0  T
   9   -523.2271118 -0.126576E+00  0.228E-01    0.02       1.0  T
  10   -523.1315833  0.955285E-01  0.637E-01    0.01       1.0  T
  11   -523.0753567  0.562265E-01  0.694E-01    0.00       1.0  T
  12   -523.1269180 -0.515612E-01  0.572E-01    0.01       1.0  T
  13   -523.1834956 -0.565777E-01  0.421E-01    0.00       1.0  T
  14   -523.2107125 -0.272168E-01  0.312E-01    0.01       1.0  T
  15   -523.2277195 -0.170070E-01  0.217E-01    0.00       1.0  T
  16   -523.2366997 -0.898018E-02  0.152E-01    0.02       1.0  T
  17   -523.2438805 -0.718082E-02  0.658E-02    0.01       1.0  T
  18   -523.2450562 -0.117571E-02  0.273E-02    0.02       1.0  T
  19   -523.2451675 -0.111271E-03  0.196E-02    0.01       1.0  T
  20   -523.2451671  0.417048E-06  0.195E-02    0.02       1.0  T
  21   -523.2453048 -0.137688E-03  0.422E-03    0.02       1.3  T
  22   -523.2452966  0.816867E-05  0.624E-03    0.02       1.0  T
  23   -523.2453102 -0.135877E-04  0.131E-03    0.02       4.3  T
  24   -523.2453100  0.130693E-06  0.144E-03    0.02       3.9  T
  25   -523.2453103 -0.295739E-06  0.110E-03    0.02       5.1  T
  26   -523.2453106 -0.304929E-06  0.616E-04    0.02       9.1  T
  27   -523.2453108 -0.124037E-06  0.142E-04    0.02      39.8  T
     SCC iter.                  ...        0 min,  9.030 sec
     gradient                   ...        0 min,  0.379 sec
 * total energy  :  -517.1707978 Eh     change       -0.9027160E-03 Eh
   gradient norm :     0.0127928 Eh/α   predicted    -0.7436641E-03 ( -17.62%)
   displ. norm   :     0.8553244 α      lambda       -0.1274396E-02
   maximum displ.:     0.6384532 α      in ANC's #3, #2, #1, ...

........................................................................
.............................. CYCLE   10 ..............................
........................................................................

 iter      E             dE          RMSdq      gap      omega  full diag
   1   -523.1896008 -0.523190E+03  0.430E-01    0.00       0.0  T
   2   -521.4683122  0.172129E+01  0.246E+00    0.03       1.0  T
   3   -522.3741489 -0.905837E+00  0.167E+00    0.06       1.0  T
   4   -522.7066934 -0.332544E+00  0.126E+00    0.02       1.0  T
   5   -522.7435278 -0.368344E-01  0.129E+00    0.02       1.0  T
   6   -522.8877966 -0.144269E+00  0.107E+00    0.02       1.0  T
   7   -523.0057913 -0.117995E+00  0.821E-01    0.00       1.0  T
   8   -523.1229164 -0.117125E+00  0.602E-01    0.01       1.0  T
   9   -523.1436629 -0.207465E-01  0.555E-01    0.01       1.0  T
  10   -523.1064507  0.372122E-01  0.638E-01    0.01       1.0  T
  11   -523.0963362  0.101144E-01  0.663E-01    0.03       1.0  T
  12   -523.1061517 -0.981552E-02  0.653E-01    0.00       1.0  T
  13   -523.1994444 -0.932927E-01  0.402E-01    0.01       1.0  T
  14   -523.2454804 -0.460360E-01  0.107E-01    0.01       1.0  T
  15   -523.2436699  0.181047E-02  0.129E-01    0.01       1.0  T
  16   -523.2485977 -0.492777E-02  0.433E-02    0.02       1.0  T
  17   -523.2487674 -0.169728E-03  0.380E-02    0.02       1.0  T
  18   -523.2481942  0.573232E-03  0.556E-02    0.02       1.0  T
  19   -523.2490443 -0.850091E-03  0.251E-02    0.02       1.0  T
  20   -523.2492536 -0.209391E-03  0.432E-03    0.02       1.3  T
  21   -523.2492381  0.155743E-04  0.800E-03    0.02       1.0  T
  22   -523.2492587 -0.206389E-04  0.170E-03    0.02       3.3  T
  23   -523.2492576  0.111201E-05  0.251E-03    0.02       2.2  T
  24   -523.2492595 -0.185410E-05  0.905E-04    0.02       6.2  T
  25   -523.2492594  0.767884E-07  0.103E-03    0.02       5.5  T
  26   -523.2492597 -0.296007E-06  0.412E-04    0.02      13.7  T
  27   -523.2492597 -0.498607E-07  0.170E-04    0.02      33.2  T
     SCC iter.                  ...        0 min,  7.764 sec
     gradient                   ...        0 min,  0.365 sec
 * total energy  :  -517.1721687 Eh     change       -0.1370913E-02 Eh
   gradient norm :     0.0151117 Eh/α   predicted    -0.1103358E-02 ( -19.52%)
   displ. norm   :     0.9110889 α      lambda       -0.1682049E-02
   maximum displ.:     0.6836855 α      in ANC's #3, #2, #1, ...

........................................................................
.............................. CYCLE   11 ..............................
........................................................................

 iter      E             dE          RMSdq      gap      omega  full diag
   1   -523.1737381 -0.523174E+03  0.468E-01    0.00       0.0  T
   2   -521.8404074  0.133333E+01  0.234E+00    0.02       1.0  T
   3   -522.0855717 -0.245164E+00  0.192E+00    0.16       1.0  T
   4   -522.4371854 -0.351614E+00  0.154E+00    0.17       1.0  T
   5   -522.9246781 -0.487493E+00  0.107E+00    0.00       1.0  T
   6   -522.7744018  0.150276E+00  0.119E+00    0.00       1.0  T
   7   -522.9829650 -0.208563E+00  0.864E-01    0.00       1.0  T
   8   -523.1385867 -0.155622E+00  0.542E-01    0.00       1.0  T
   9   -523.2106062 -0.720195E-01  0.330E-01    0.00       1.0  T
  10   -523.0813022  0.129304E+00  0.689E-01    0.01       1.0  T
  11   -523.0718633  0.943886E-02  0.719E-01    0.00       1.0  T
  12   -523.0877561 -0.158929E-01  0.707E-01    0.00       1.0  T
  13   -523.2149552 -0.127199E+00  0.298E-01    0.00       1.0  T
  14   -523.2048838  0.100714E-01  0.350E-01    0.01       1.0  T
  15   -523.1513266  0.535572E-01  0.520E-01    0.00       1.0  T
  16   -523.2411368 -0.898102E-01  0.141E-01    0.01       1.0  T
  17   -523.2453595 -0.422269E-02  0.660E-02    0.02       1.0  T
  18   -523.2344031  0.109563E-01  0.184E-01    0.00       1.0  T
  19   -523.2456041 -0.112009E-01  0.574E-02    0.01       1.0  T
  20   -523.2455971  0.692927E-05  0.537E-02    0.02       1.0  T
  21   -523.2457144 -0.117280E-03  0.527E-02    0.01       1.0  T
  22   -523.2466419 -0.927450E-03  0.104E-02    0.02       1.0  T
  23   -523.2466254  0.164199E-04  0.115E-02    0.02       1.0  T
  24   -523.2466667 -0.412614E-04  0.451E-03    0.02       1.2  T
  25   -523.2466721 -0.537505E-05  0.203E-03    0.02       2.8  T
  26   -523.2466730 -0.920170E-06  0.104E-03    0.02       5.4  T
  27   -523.2466731 -0.118586E-06  0.832E-04    0.02       6.8  T
  28   -523.2466733 -0.200640E-06  0.309E-04    0.02      18.2  T
     SCC iter.                  ...        0 min,  8.716 sec
     gradient                   ...        0 min,  0.366 sec
 * total energy  :  -517.1743375 Eh     change       -0.2168872E-02 Eh
   gradient norm :     0.0282353 Eh/α   predicted    -0.1539147E-02 ( -29.03%)
   displ. norm   :     0.8051203 α      lambda       -0.3427973E-02
   maximum displ.:     0.6743290 α      in ANC's #3, #2, #1, ...

........................................................................
.............................. CYCLE   12 ..............................
........................................................................

 iter      E             dE          RMSdq      gap      omega  full diag
   1   -523.2135323 -0.523214E+03  0.393E-01    0.00       0.0  T
   2   -521.7622493  0.145128E+01  0.242E+00    0.02       1.0  T
   3   -522.2126972 -0.450448E+00  0.181E+00    0.11       1.0  T
   4   -522.6059121 -0.393215E+00  0.137E+00    0.06       1.0  T
   5   -522.8843314 -0.278419E+00  0.130E+00    0.01       1.0  T
   6   -522.8878575 -0.352608E-02  0.107E+00    0.00       1.0  T
   7   -523.1167338 -0.228876E+00  0.660E-01    0.00       1.0  T
   8   -523.0750582  0.416756E-01  0.735E-01    0.01       1.0  T
   9   -523.2281970 -0.153139E+00  0.310E-01    0.00       1.0  T
  10   -522.8073673  0.420830E+00  0.117E+00    0.04       1.0  T
  11   -523.1791236 -0.371756E+00  0.482E-01    0.02       1.0  T
  12   -523.1545451  0.245785E-01  0.552E-01    0.01       1.0  T
  13   -523.2465206 -0.919755E-01  0.196E-01    0.01       1.0  T
  14   -523.1360024  0.110518E+00  0.585E-01    0.01       1.0  T
  15   -523.2561790 -0.120177E+00  0.840E-02    0.01       1.0  T
  16   -523.2412971  0.148819E-01  0.226E-01    0.01       1.0  T
  17   -523.2506173 -0.932019E-02  0.152E-01    0.01       1.0  T
  18   -523.2576545 -0.703721E-02  0.427E-02    0.02       1.0  T
  19   -523.2579584 -0.303970E-03  0.267E-02    0.02       1.0  T
  20   -523.2580192 -0.608102E-04  0.198E-02    0.02       1.0  T
  21   -523.2581278 -0.108520E-03  0.799E-03    0.02       1.0  T
  22   -523.2581378 -0.100701E-04  0.596E-03    0.02       1.0  T
  23   -523.2581376  0.267310E-06  0.594E-03    0.02       1.0  T
  24   -523.2581486 -0.110790E-04  0.138E-03    0.02       4.1  T
  25   -523.2581482  0.399876E-06  0.166E-03    0.02       3.4  T
  26   -523.2581492 -0.905393E-06  0.233E-04    0.02      24.2  T
  27   -523.2581492 -0.102976E-07  0.162E-04    0.02      34.8  T
     SCC iter.                  ...        0 min,  8.246 sec
     gradient                   ...        0 min,  0.345 sec
 * total energy  :  -517.1789440 Eh     change       -0.4606433E-02 Eh
   gradient norm :     0.0307543 Eh/α   predicted    -0.2825024E-02 ( -38.67%)
   displ. norm   :     0.8691852 α      lambda       -0.7952733E-02
   maximum displ.:     0.7743952 α      in ANC's #3, #1, #2, ...

........................................................................
.............................. CYCLE   13 ..............................
........................................................................

 iter      E             dE          RMSdq      gap      omega  full diag
   1   -523.2066631 -0.523207E+03  0.443E-01    0.00       0.0  T
   2   -522.1183061  0.108836E+01  0.231E+00    0.01       1.0  T
   3   -522.2660034 -0.147697E+00  0.178E+00    0.05       1.0  T
   4   -522.5250770 -0.259074E+00  0.146E+00    0.06       1.0  T
   5   -522.8744769 -0.349400E+00  0.114E+00    0.02       1.0  T
   6   -522.9093806 -0.349036E-01  0.103E+00    0.01       1.0  T
   7   -522.8831120  0.262685E-01  0.106E+00    0.01       1.0  T
   8   -523.0647641 -0.181652E+00  0.773E-01    0.02       1.0  T
   9   -522.8910473  0.173717E+00  0.105E+00    0.05       1.0  T
  10   -523.0727320 -0.181685E+00  0.765E-01    0.01       1.0  T
  11   -522.8818092  0.190923E+00  0.104E+00    0.02       1.0  T
  12   -523.1366579 -0.254849E+00  0.584E-01    0.00       1.0  T
  13   -523.0938979  0.427599E-01  0.677E-01    0.00       1.0  T
  14   -523.2437875 -0.149890E+00  0.240E-01    0.02       1.0  T
  15   -523.2175366  0.262509E-01  0.360E-01    0.00       1.0  T
  16   -523.2271968 -0.966017E-02  0.305E-01    0.00       1.0  T
  17   -523.2491325 -0.219358E-01  0.173E-01    0.01       1.0  T
  18   -523.2558555 -0.672293E-02  0.944E-02    0.02       1.0  T
  19   -523.2577404 -0.188498E-02  0.556E-02    0.01       1.0  T
  20   -523.2585501 -0.809622E-03  0.262E-02    0.01       1.0  T
  21   -523.2586922 -0.142101E-03  0.152E-02    0.02       1.0  T
  22   -523.2587578 -0.655956E-04  0.619E-03    0.02       1.0  T
  23   -523.2587638 -0.605421E-05  0.475E-03    0.02       1.2  T
  24   -523.2587705 -0.663335E-05  0.200E-03    0.02       2.8  T
  25   -523.2587711 -0.639540E-06  0.143E-03    0.02       4.0  T
  26   -523.2587710  0.695068E-07  0.155E-03    0.02       3.6  T
  27   -523.2587717 -0.681417E-06  0.586E-04    0.02       9.6  T
  28   -523.2587718 -0.717260E-07  0.368E-04    0.02      15.3  T
     SCC iter.                  ...        0 min,  8.042 sec
     gradient                   ...        0 min,  0.392 sec
 * total energy  :  -517.1893150 Eh     change       -0.1037104E-01 Eh
   gradient norm :     0.0614321 Eh/α   predicted    -0.6980442E-02 ( -32.69%)
   displ. norm   :     0.8006473 α      lambda       -0.1801422E-01
   maximum displ.:     0.7731373 α      in ANC's #3, #1, #2, ...

........................................................................
.............................. CYCLE   14 ..............................
........................................................................

 iter      E             dE          RMSdq      gap      omega  full diag
   1   -523.2530498 -0.523253E+03  0.432E-01    0.03       0.0  T
   2   -520.8850715  0.236798E+01  0.293E+00    0.03       1.0  T
   3   -522.8841541 -0.199908E+01  0.117E+00    0.00       1.0  T
   4   -522.4500419  0.434112E+00  0.160E+00    0.02       1.0  T
   5   -522.8275231 -0.377481E+00  0.123E+00    0.01       1.0  T
   6   -523.0612697 -0.233747E+00  0.858E-01    0.02       1.0  T
   7   -523.0144344  0.468352E-01  0.899E-01    0.03       1.0  T
   8   -523.0803905 -0.659561E-01  0.816E-01    0.01       1.0  T
   9   -523.1291766 -0.487860E-01  0.700E-01    0.02       1.0  T
  10   -523.0302553  0.989213E-01  0.986E-01    0.01       1.0  T
  11   -523.1642263 -0.133971E+00  0.615E-01    0.00       1.0  T
  12   -523.0483652  0.115861E+00  0.871E-01    0.00       1.0  T
  13   -523.2773728 -0.229008E+00  0.273E-01    0.01       1.0  T
  14   -523.1356614  0.141711E+00  0.679E-01    0.00       1.0  T
  15   -523.2534899 -0.117829E+00  0.370E-01    0.01       1.0  T
  16   -523.2956984 -0.422085E-01  0.122E-01    0.02       1.0  T
  17   -523.2853358  0.103627E-01  0.209E-01    0.01       1.0  T
  18   -523.2993221 -0.139863E-01  0.531E-02    0.01       1.0  T
  19   -523.2992526  0.694359E-04  0.547E-02    0.02       1.0  T
  20   -523.2994950 -0.242366E-03  0.484E-02    0.01       1.0  T
  21   -523.2999712 -0.476174E-03  0.309E-02    0.02       1.0  T
  22   -523.3002834 -0.312218E-03  0.772E-03    0.02       1.0  T
  23   -523.3002881 -0.472261E-05  0.699E-03    0.02       1.0  T
  24   -523.3002983 -0.102117E-04  0.412E-03    0.02       1.4  T
  25   -523.3003019 -0.351921E-05  0.260E-03    0.02       2.2  T
  26   -523.3003037 -0.188119E-05  0.112E-03    0.02       5.0  T
  27   -523.3003039 -0.177691E-06  0.888E-04    0.02       6.3  T
  28   -523.3003041 -0.166787E-06  0.568E-04    0.02       9.9  T
     SCC iter.                  ...        0 min,  8.557 sec
     gradient                   ...        0 min,  0.369 sec
 * total energy  :  -517.2067123 Eh     change       -0.1739727E-01 Eh
   gradient norm :     0.0889038 Eh/α   predicted    -0.1478099E-01 ( -15.04%)
   displ. norm   :     0.9423950 α      lambda       -0.2273377E-01
   maximum displ.:     0.9347646 α      in ANC's #3, #2, #1, ...

........................................................................
.............................. CYCLE   15 ..............................
........................................................................

 iter      E             dE          RMSdq      gap      omega  full diag
   1   -523.2602750 -0.523260E+03  0.601E-01    0.04       0.0  T
   2   -520.7393531  0.252092E+01  0.320E+00    0.02       1.0  T
   3   -522.7113876 -0.197203E+01  0.140E+00    0.04       1.0  T
   4   -522.6139873  0.974003E-01  0.164E+00    0.04       1.0  T
   5   -522.7774165 -0.163429E+00  0.146E+00    0.00       1.0  T
   6   -522.8816845 -0.104268E+00  0.121E+00    0.00       1.0  T
   7   -522.9855948 -0.103910E+00  0.103E+00    0.02       1.0  T
   8   -523.1160091 -0.130414E+00  0.819E-01    0.01       1.0  T
   9   -522.9524059  0.163603E+00  0.108E+00    0.00       1.0  T
  10   -522.6199182  0.332488E+00  0.145E+00    0.04       1.0  T
  11   -523.1118735 -0.491955E+00  0.822E-01    0.03       1.0  T
  12   -523.1986915 -0.868180E-01  0.652E-01    0.00       1.0  T
  13   -522.9904884  0.208203E+00  0.102E+00    0.01       1.0  T
  14   -523.2333922 -0.242904E+00  0.557E-01    0.02       1.0  T
  15   -523.2413254 -0.793322E-02  0.559E-01    0.00       1.0  T
  16   -523.3219789 -0.806535E-01  0.280E-01    0.00       1.0  T
  17   -523.3315437 -0.956483E-02  0.207E-01    0.00       1.0  T
  18   -523.3366290 -0.508527E-02  0.163E-01    0.01       1.0  T
  19   -523.3403074 -0.367845E-02  0.118E-01    0.02       1.0  T
  20   -523.3449343 -0.462685E-02  0.364E-02    0.02       1.0  T
  21   -523.3448554  0.788712E-04  0.394E-02    0.01       1.0  T
  22   -523.3452230 -0.367562E-03  0.216E-02    0.02       1.0  T
  23   -523.3453691 -0.146110E-03  0.645E-03    0.02       1.0  T
  24   -523.3453597  0.938547E-05  0.841E-03    0.02       1.0  T
  25   -523.3453782 -0.184652E-04  0.407E-03    0.02       1.4  T
  26   -523.3453815 -0.336288E-05  0.252E-03    0.02       2.2  T
  27   -523.3453826 -0.108917E-05  0.178E-03    0.02       3.2  T
  28   -523.3453833 -0.646975E-06  0.111E-03    0.02       5.1  T
  29   -523.3453835 -0.218785E-06  0.784E-04    0.02       7.2  T
  30   -523.3453837 -0.196896E-06  0.280E-04    0.02      20.1  T
     SCC iter.                  ...        0 min,  8.694 sec
     gradient                   ...        0 min,  0.372 sec
 * total energy  :  -517.2234469 Eh     change       -0.1673458E-01 Eh
   gradient norm :     0.1935727 Eh/α   predicted    -0.2146193E-01 (  28.25%)
   displ. norm   :     0.6122716 α      lambda       -0.2114744E-01
   maximum displ.:     0.4548247 α      in ANC's #3, #2, #1, ...

........................................................................
.............................. CYCLE   16 ..............................
........................................................................

 iter      E             dE          RMSdq      gap      omega  full diag
   1   -523.1801910 -0.523180E+03  0.795E-01    0.01       0.0  T
   2   -519.7088817  0.347131E+01  0.349E+00    0.02       1.0  T
   3   -522.6603101 -0.295143E+01  0.151E+00    0.03       1.0  T
   4   -522.5520844  0.108226E+00  0.160E+00    0.04       1.0  T
   5   -522.2993248  0.252760E+00  0.243E+00    0.07       1.0  T
   6   -523.1224815 -0.823157E+00  0.878E-01    0.00       1.0  T
   7   -523.0338085  0.886731E-01  0.101E+00    0.02       1.0  T
   8   -523.1324855 -0.986770E-01  0.844E-01    0.00       1.0  T
   9   -523.0785822  0.539033E-01  0.931E-01    0.01       1.0  T
  10   -523.0254304  0.531517E-01  0.996E-01    0.02       1.0  T
  11   -522.8775041  0.147926E+00  0.119E+00    0.00       1.0  T
  12   -523.2384700 -0.360966E+00  0.621E-01    0.02       1.0  T
  13   -523.0407707  0.197699E+00  0.966E-01    0.01       1.0  T
  14   -523.2884617 -0.247691E+00  0.458E-01    0.02       1.0  T
  15   -523.2476733  0.407884E-01  0.574E-01    0.01       1.0  T
  16   -523.2549337 -0.726041E-02  0.549E-01    0.01       1.0  T
  17   -523.3206858 -0.657521E-01  0.345E-01    0.01       1.0  T
  18   -523.3227641 -0.207825E-02  0.336E-01    0.01       1.0  T
  19   -523.3443058 -0.215417E-01  0.226E-01    0.01       1.0  T
  20   -523.3545428 -0.102370E-01  0.150E-01    0.00       1.0  T
  21   -523.3528408  0.170196E-02  0.164E-01    0.02       1.0  T
  22   -523.3623436 -0.950282E-02  0.330E-02    0.02       1.0  T
  23   -523.3624903 -0.146649E-03  0.261E-02    0.02       1.0  T
  24   -523.3623807  0.109565E-03  0.309E-02    0.02       1.0  T
  25   -523.3627024 -0.321624E-03  0.959E-03    0.02       1.0  T
  26   -523.3627112 -0.886540E-05  0.800E-03    0.02       1.0  T
  27   -523.3627254 -0.142162E-04  0.467E-03    0.02       1.2  T
  28   -523.3627307 -0.523703E-05  0.275E-03    0.02       2.1  T
  29   -523.3627330 -0.228374E-05  0.100E-03    0.02       5.6  T
  30   -523.3627331 -0.132154E-06  0.757E-04    0.02       7.4  T
  31   -523.3627333 -0.190749E-06  0.166E-04    0.02      33.9  T
     SCC iter.                  ...        0 min,  9.852 sec
     gradient                   ...        0 min,  0.364 sec
 * total energy  :  -517.2357287 Eh     change       -0.1228184E-01 Eh
   gradient norm :     0.1071051 Eh/α   predicted    -0.1453755E-01 (  18.37%)
   displ. norm   :     0.3810573 α      lambda       -0.1220460E-01
   maximum displ.:     0.2321388 α      in ANC's #2, #3, #502, ...

........................................................................
.............................. CYCLE   17 ..............................
........................................................................

 iter      E             dE          RMSdq      gap      omega  full diag
   1   -523.2302722 -0.523230E+03  0.589E-01    0.00       0.0  T
   2   -522.5355092  0.694763E+00  0.168E+00    0.05       1.0  T
   3   -522.6376594 -0.102150E+00  0.149E+00    0.06       1.0  T
   4   -523.0106627 -0.373003E+00  0.104E+00    0.03       1.0  T
   5   -522.9023759  0.108287E+00  0.115E+00    0.00       1.0  T
   6   -523.0564258 -0.154050E+00  0.948E-01    0.02       1.0  T
   7   -523.1525486 -0.961228E-01  0.772E-01    0.00       1.0  T
   8   -523.1049738  0.475748E-01  0.844E-01    0.03       1.0  T
   9   -523.2158105 -0.110837E+00  0.611E-01    0.00       1.0  T
  10   -523.2441874 -0.283769E-01  0.531E-01    0.01       1.0  T
  11   -523.1553492  0.888382E-01  0.732E-01    0.02       1.0  T
  12   -523.1180666  0.372826E-01  0.808E-01    0.02       1.0  T
  13   -523.3332844 -0.215218E+00  0.187E-01    0.01       1.0  T
  14   -523.2904502  0.428342E-01  0.411E-01    0.00       1.0  T
  15   -523.2162910  0.741593E-01  0.641E-01    0.01       1.0  T
  16   -523.1824546  0.338364E-01  0.689E-01    0.02       1.0  T
  17   -523.2758888 -0.934342E-01  0.455E-01    0.01       1.0  T
  18   -523.3345504 -0.586617E-01  0.174E-01    0.01       1.0  T
  19   -523.3340047  0.545763E-03  0.182E-01    0.02       1.0  T
  20   -523.3381386 -0.413391E-02  0.138E-01    0.01       1.0  T
  21   -523.3403023 -0.216372E-02  0.114E-01    0.02       1.0  T
  22   -523.3443833 -0.408102E-02  0.327E-02    0.02       1.0  T
  23   -523.3446072 -0.223899E-03  0.214E-02    0.02       1.0  T
  24   -523.3447270 -0.119810E-03  0.105E-02    0.02       1.0  T
  25   -523.3447458 -0.187956E-04  0.750E-03    0.02       1.0  T
  26   -523.3447504 -0.451182E-05  0.702E-03    0.02       1.0  T
  27   -523.3447628 -0.124274E-04  0.143E-03    0.02       3.9  T
  28   -523.3447615  0.132464E-05  0.242E-03    0.02       2.3  T
  29   -523.3447633 -0.180264E-05  0.806E-04    0.02       7.0  T
  30   -523.3447632  0.161648E-07  0.804E-04    0.02       7.0  T
  31   -523.3447635 -0.215001E-06  0.205E-04    0.02      27.4  T
     SCC iter.                  ...        0 min,  9.597 sec
     gradient                   ...        0 min,  0.387 sec
 * total energy  :  -517.2429231 Eh     change       -0.7194359E-02 Eh
   gradient norm :     0.0278801 Eh/α   predicted    -0.6988385E-02 (  -2.86%)
   displ. norm   :     0.4295037 α      lambda       -0.3054209E-02
   maximum displ.:     0.3502594 α      in ANC's #1, #3, #2, ...

........................................................................
.............................. CYCLE   18 ..............................
........................................................................

 iter      E             dE          RMSdq      gap      omega  full diag
   1   -523.3029369 -0.523303E+03  0.352E-01    0.01       0.0  T
   2   -522.2736171  0.102932E+01  0.181E+00    0.01       1.0  T
   3   -522.7799209 -0.506304E+00  0.136E+00    0.01       1.0  T
   4   -522.8150944 -0.351736E-01  0.125E+00    0.03       1.0  T
   5   -523.0770302 -0.261936E+00  0.873E-01    0.03       1.0  T
   6   -523.1120989 -0.350687E-01  0.829E-01    0.01       1.0  T
   7   -523.1577793 -0.456804E-01  0.748E-01    0.01       1.0  T
   8   -523.3280923 -0.170313E+00  0.220E-01    0.01       1.0  T
   9   -523.1945515  0.133541E+00  0.641E-01    0.00       1.0  T
  10   -523.2024615 -0.790995E-02  0.632E-01    0.00       1.0  T
  11   -523.2121954 -0.973393E-02  0.618E-01    0.00       1.0  T
  12   -523.2953049 -0.831095E-01  0.369E-01    0.00       1.0  T
  13   -523.3023641 -0.705916E-02  0.349E-01    0.00       1.0  T
  14   -523.3374543 -0.350902E-01  0.144E-01    0.01       1.0  T
  15   -523.3290625  0.839182E-02  0.211E-01    0.01       1.0  T
  16   -523.3253235  0.373892E-02  0.236E-01    0.01       1.0  T
  17   -523.3420959 -0.167723E-01  0.898E-02    0.02       1.0  T
  18   -523.3446075 -0.251164E-02  0.276E-02    0.02       1.0  T
  19   -523.3448534 -0.245899E-03  0.696E-03    0.02       1.0  T
  20   -523.3448565 -0.307104E-05  0.620E-03    0.02       1.0  T
  21   -523.3448543  0.219983E-05  0.659E-03    0.02       1.0  T
  22   -523.3448610 -0.671645E-05  0.492E-03    0.02       1.1  T
  23   -523.3448682 -0.720994E-05  0.205E-03    0.02       2.7  T
  24   -523.3448668  0.138185E-05  0.280E-03    0.02       2.0  T
  25   -523.3448694 -0.253055E-05  0.955E-04    0.02       5.9  T
  26   -523.3448695 -0.173583E-06  0.641E-04    0.02       8.8  T
  27   -523.3448694  0.120358E-06  0.851E-04    0.02       6.6  T
     SCC iter.                  ...        0 min,  8.059 sec
     gradient                   ...        0 min,  0.356 sec
 * total energy  :  -517.2454229 Eh     change       -0.2499826E-02 Eh
   gradient norm :     0.0167636 Eh/α   predicted    -0.1808827E-02 ( -27.64%)
   displ. norm   :     0.9005512 α      lambda       -0.5524071E-02
   maximum displ.:     0.7117057 α      in ANC's #2, #3, #1, ...

........................................................................
.............................. CYCLE   19 ..............................
........................................................................

 iter      E             dE          RMSdq      gap      omega  full diag
   1   -523.2565684 -0.523257E+03  0.528E-01    0.00       0.0  T
   2   -521.9094376  0.134713E+01  0.208E+00    0.07       1.0  T
   3   -522.6223780 -0.712940E+00  0.146E+00    0.19       1.0  T
   4   -522.9025275 -0.280150E+00  0.116E+00    0.00       1.0  T
   5   -522.9825585 -0.800310E-01  0.105E+00    0.01       1.0  T
   6   -522.9789786  0.357989E-02  0.103E+00    0.01       1.0  T
   7   -523.0113611 -0.323825E-01  0.992E-01    0.01       1.0  T
   8   -523.0618036 -0.504425E-01  0.920E-01    0.01       1.0  T
   9   -523.2910321 -0.229228E+00  0.377E-01    0.01       1.0  T
  10   -523.1321238  0.158908E+00  0.775E-01    0.01       1.0  T
  11   -523.2129343 -0.808105E-01  0.605E-01    0.00       1.0  T
  12   -523.2741210 -0.611867E-01  0.434E-01    0.01       1.0  T
  13   -523.2275359  0.465850E-01  0.572E-01    0.02       1.0  T
  14   -523.2691471 -0.416112E-01  0.448E-01    0.00       1.0  T
  15   -523.1178469  0.151300E+00  0.815E-01    0.00       1.0  T
  16   -523.3195679 -0.201721E+00  0.229E-01    0.01       1.0  T
  17   -523.3166051  0.296280E-02  0.248E-01    0.02       1.0  T
  18   -523.2931533  0.234518E-01  0.369E-01    0.00       1.0  T
  19   -523.3353653 -0.422120E-01  0.815E-02    0.01       1.0  T
  20   -523.3375481 -0.218280E-02  0.225E-02    0.02       1.0  T
  21   -523.3374078  0.140278E-03  0.300E-02    0.02       1.0  T
  22   -523.3374699 -0.621017E-04  0.269E-02    0.02       1.0  T
  23   -523.3376891 -0.219220E-03  0.103E-02    0.02       1.0  T
  24   -523.3377023 -0.131372E-04  0.829E-03    0.02       1.0  T
  25   -523.3377215 -0.192831E-04  0.321E-03    0.02       1.8  T
  26   -523.3377239 -0.230241E-05  0.192E-03    0.02       2.9  T
  27   -523.3377246 -0.736813E-06  0.127E-03    0.02       4.4  T
  28   -523.3377247 -0.890568E-07  0.119E-03    0.02       4.7  T
  29   -523.3377248 -0.795442E-07  0.108E-03    0.02       5.2  T
  30   -523.3377251 -0.361144E-06  0.303E-04    0.02      18.6  T
  31   -523.3377251  0.250104E-07  0.409E-04    0.02      13.8  T
     SCC iter.                  ...        0 min,  9.190 sec
     gradient                   ...        0 min,  0.369 sec
 * total energy  :  -517.2525586 Eh     change       -0.7135692E-02 Eh
   gradient norm :     0.0461187 Eh/α   predicted    -0.5002023E-02 ( -29.90%)
   displ. norm   :     0.8535473 α      lambda       -0.1060665E-01
   maximum displ.:     0.6259081 α      in ANC's #2, #3, #1, ...

........................................................................
.............................. CYCLE   20 ..............................
........................................................................

 iter      E             dE          RMSdq      gap      omega  full diag
   1   -523.2788892 -0.523279E+03  0.484E-01    0.01       0.0  T
   2   -521.5153762  0.176351E+01  0.234E+00    0.02       1.0  T
   3   -522.8025198 -0.128714E+01  0.127E+00    0.04       1.0  T
   4   -522.7475462  0.549736E-01  0.132E+00    0.08       1.0  T
   5   -522.7491125 -0.156626E-02  0.135E+00    0.08       1.0  T
   6   -522.9513529 -0.202240E+00  0.108E+00    0.03       1.0  T
   7   -523.0462923 -0.949394E-01  0.925E-01    0.00       1.0  T
   8   -523.2049938 -0.158701E+00  0.640E-01    0.01       1.0  T
   9   -523.1606521  0.443417E-01  0.739E-01    0.02       1.0  T
  10   -523.1089361  0.517160E-01  0.852E-01    0.01       1.0  T
  11   -523.2791588 -0.170223E+00  0.453E-01    0.01       1.0  T
  12   -523.2378800  0.412788E-01  0.551E-01    0.01       1.0  T
  13   -523.1421205  0.957596E-01  0.781E-01    0.01       1.0  T
  14   -523.3136233 -0.171503E+00  0.315E-01    0.00       1.0  T
  15   -523.3120892  0.153413E-02  0.322E-01    0.01       1.0  T
  16   -523.3236951 -0.116059E-01  0.264E-01    0.02       1.0  T
  17   -523.3316863 -0.799115E-02  0.212E-01    0.01       1.0  T
  18   -523.3311087  0.577590E-03  0.217E-01    0.01       1.0  T
  19   -523.3390633 -0.795466E-02  0.159E-01    0.01       1.0  T
  20   -523.3464867 -0.742339E-02  0.573E-02    0.02       1.0  T
  21   -523.3469344 -0.447706E-03  0.449E-02    0.02       1.0  T
  22   -523.3475346 -0.600148E-03  0.164E-02    0.02       1.0  T
  23   -523.3476038 -0.691812E-04  0.830E-03    0.02       1.0  T
  24   -523.3476146 -0.108581E-04  0.621E-03    0.02       1.0  T
  25   -523.3476216 -0.695679E-05  0.434E-03    0.02       1.3  T
  26   -523.3476270 -0.542298E-05  0.187E-03    0.02       3.0  T
  27   -523.3476277 -0.677461E-06  0.120E-03    0.02       4.7  T
  28   -523.3476276  0.813274E-07  0.131E-03    0.02       4.3  T
  29   -523.3476273  0.299276E-06  0.162E-03    0.02       3.5  T
  30   -523.3476279 -0.543583E-06  0.982E-04    0.02       5.7  T
  31   -523.3476280 -0.148784E-06  0.742E-04    0.02       7.6  T
     SCC iter.                  ...        0 min,  9.507 sec
     gradient                   ...        0 min,  0.368 sec
 * total energy  :  -517.2640361 Eh     change       -0.1147754E-01 Eh
   gradient norm :     0.0622328 Eh/α   predicted    -0.9167040E-02 ( -20.13%)
   displ. norm   :     0.8329096 α      lambda       -0.1671667E-01
   maximum displ.:     0.5051422 α      in ANC's #1, #3, #2, ...
 * RMSD in coord.:     0.5271719 α      energy gain  -0.1090804E+00 Eh

generating ANC from model Hessian ...
Using Lindh-Hessian (1995)
 Shifting diagonal of input Hessian by    9.6746891178859633E-003
 Lowest  eigenvalues of input Hessian
    0.000000    0.000000    0.000000    0.000000    0.000000    0.000000
    0.010000    0.013098    0.013437    0.013932    0.014868    0.014990
    0.015781    0.016639    0.016977    0.017503    0.017771    0.017957
 Highest eigenvalues
    2.699058    2.709818    2.720618    2.734403    2.753081    3.056602


........................................................................
.............................. CYCLE   21 ..............................
........................................................................

 iter      E             dE          RMSdq      gap      omega  full diag
   1   -522.9823035 -0.522982E+03  0.122E+00    0.09       0.0  T
   2   -518.8697605  0.411254E+01  0.362E+00    0.11       1.0  T
   3   -522.6864150 -0.381665E+01  0.151E+00    0.03       1.0  T
   4   -522.7593251 -0.729102E-01  0.144E+00    0.04       1.0  T
   5   -522.5580132  0.201312E+00  0.164E+00    0.01       1.0  T
   6   -522.9735059 -0.415493E+00  0.115E+00    0.08       1.0  T
   7   -522.9382110  0.352950E-01  0.120E+00    0.00       1.0  T
   8   -522.7277718  0.210439E+00  0.142E+00    0.00       1.0  T
   9   -523.0699604 -0.342189E+00  0.989E-01    0.01       1.0  T
  10   -522.9480814  0.121879E+00  0.116E+00    0.01       1.0  T
  11   -522.5581186  0.389963E+00  0.173E+00    0.04       1.0  T
  12   -522.7565919 -0.198473E+00  0.142E+00    0.02       1.0  T
  13   -522.7715144 -0.149225E-01  0.138E+00    0.06       1.0  T
  14   -522.6927360  0.787784E-01  0.154E+00    0.05       1.0  T
  15   -523.1085579 -0.415822E+00  0.901E-01    0.02       1.0  T
  16   -523.1268008 -0.182428E-01  0.878E-01    0.02       1.0  T
  17   -523.1719325 -0.451317E-01  0.806E-01    0.01       1.0  T
  18   -523.2763423 -0.104410E+00  0.563E-01    0.00       1.0  T
  19   -523.2573005  0.190418E-01  0.602E-01    0.00       1.0  T
  20   -523.3173364 -0.600359E-01  0.445E-01    0.00       1.0  T
  21   -523.3689894 -0.516531E-01  0.199E-01    0.01       1.0  T
  22   -523.3428850  0.261045E-01  0.336E-01    0.02       1.0  T
  23   -523.3634233 -0.205383E-01  0.267E-01    0.01       1.0  T
  24   -523.3601593  0.326405E-02  0.256E-01    0.01       1.0  T
  25   -523.3681263 -0.796707E-02  0.192E-01    0.01       1.0  T
  26   -523.3783342 -0.102079E-01  0.884E-02    0.02       1.0  T
  27   -523.3794171 -0.108287E-02  0.628E-02    0.02       1.0  T
  28   -523.3794982 -0.811682E-04  0.527E-02    0.02       1.0  T
  29   -523.3797033 -0.205028E-03  0.456E-02    0.02       1.0  T
  30   -523.3799516 -0.248291E-03  0.358E-02    0.02       1.0  T
  31   -523.3800930 -0.141429E-03  0.295E-02    0.02       1.0  T
  32   -523.3802999 -0.206917E-03  0.167E-02    0.02       1.0  T
  33   -523.3802733  0.265704E-04  0.179E-02    0.02       1.0  T
  34   -523.3803525 -0.791318E-04  0.747E-03    0.02       1.0  T
  35   -523.3803481  0.440217E-05  0.806E-03    0.02       1.0  T
  36   -523.3803618 -0.137159E-04  0.494E-03    0.02       1.1  T
  37   -523.3803636 -0.179491E-05  0.448E-03    0.02       1.3  T
  38   -523.3803701 -0.648849E-05  0.110E-03    0.02       5.1  T
  39   -523.3803703 -0.288910E-06  0.565E-04    0.02      10.0  T
  40   -523.3803704 -0.764963E-07  0.296E-04    0.02      19.0  T
     SCC iter.                  ...        0 min, 11.802 sec
     gradient                   ...        0 min,  0.374 sec
 * total energy  :  -517.2639447 Eh     change        0.9139199E-04 Eh
   gradient norm :     0.0813260 Eh/α   predicted     0.0000000E+00 (-100.00%)
   displ. norm   :     0.5518164 α      lambda       -0.1796027E-01
   maximum displ.:     0.5269445 α      in ANC's #1, #4, #347, ...

........................................................................
.............................. CYCLE   22 ..............................
........................................................................

 iter      E             dE          RMSdq      gap      omega  full diag
   1   -523.3659701 -0.523366E+03  0.255E-01    0.01       0.0  T
   2   -522.6144824  0.751488E+00  0.164E+00    0.03       1.0  T
   3   -523.1568861 -0.542404E+00  0.815E-01    0.01       1.0  T
   4   -523.1735559 -0.166698E-01  0.787E-01    0.03       1.0  T
   5   -523.2697084 -0.961525E-01  0.570E-01    0.00       1.0  T
   6   -523.2643351  0.537333E-02  0.581E-01    0.00       1.0  T
   7   -523.1288155  0.135520E+00  0.837E-01    0.04       1.0  T
   8   -523.3158829 -0.187067E+00  0.453E-01    0.00       1.0  T
   9   -523.2342604  0.816225E-01  0.651E-01    0.01       1.0  T
  10   -523.2769432 -0.426828E-01  0.542E-01    0.00       1.0  T
  11   -523.3100269 -0.330837E-01  0.449E-01    0.00       1.0  T
  12   -523.3407777 -0.307508E-01  0.330E-01    0.01       1.0  T
  13   -523.3468038 -0.602610E-02  0.303E-01    0.02       1.0  T
  14   -523.3718819 -0.250781E-01  0.143E-01    0.03       1.0  T
  15   -523.3678483  0.403358E-02  0.178E-01    0.01       1.0  T
  16   -523.3762753 -0.842695E-02  0.842E-02    0.01       1.0  T
  17   -523.3745075  0.176780E-02  0.110E-01    0.02       1.0  T
  18   -523.3785521 -0.404460E-02  0.231E-02    0.02       1.0  T
  19   -523.3786683 -0.116181E-03  0.141E-02    0.02       1.0  T
  20   -523.3785102  0.158043E-03  0.257E-02    0.02       1.0  T
  21   -523.3787183 -0.208047E-03  0.754E-03    0.02       1.0  T
  22   -523.3787278 -0.949662E-05  0.531E-03    0.02       1.1  T
  23   -523.3787138  0.140090E-04  0.816E-03    0.02       1.0  T
  24   -523.3787361 -0.223189E-04  0.187E-03    0.02       3.0  T
  25   -523.3787343  0.177806E-05  0.288E-03    0.02       2.0  T
  26   -523.3787342  0.917943E-07  0.291E-03    0.02       1.9  T
  27   -523.3787367 -0.244458E-05  0.118E-03    0.02       4.8  T
  28   -523.3787368 -0.143126E-06  0.100E-03    0.02       5.6  T
  29   -523.3787371 -0.266817E-06  0.484E-04    0.02      11.6  T
  30   -523.3787371 -0.734656E-07  0.149E-04    0.02      37.7  T
     SCC iter.                  ...        0 min,  9.065 sec
     gradient                   ...        0 min,  0.388 sec
 * total energy  :  -517.2757150 Eh     change       -0.1177024E-01 Eh
   gradient norm :     0.0189486 Eh/α   predicted    -0.1171552E-01 (  -0.46%)
   displ. norm   :     0.4586796 α      lambda       -0.4912107E-02
   maximum displ.:     0.4027072 α      in ANC's #1, #129, #4, ...

........................................................................
.............................. CYCLE   23 ..............................
........................................................................

 iter      E             dE          RMSdq      gap      omega  full diag
   1   -523.3718721 -0.523372E+03  0.167E-01    0.02       0.0  T
   2   -522.4629356  0.908937E+00  0.185E+00    0.02       1.0  T
   3   -523.2306349 -0.767699E+00  0.655E-01    0.03       1.0  T
   4   -523.3001151 -0.694802E-01  0.472E-01    0.00       1.0  T
   5   -523.1474483  0.152667E+00  0.819E-01    0.01       1.0  T
   6   -523.2016904 -0.542420E-01  0.706E-01    0.00       1.0  T
   7   -523.3627131 -0.161023E+00  0.206E-01    0.01       1.0  T
   8   -523.2036317  0.159081E+00  0.699E-01    0.02       1.0  T
   9   -523.3746305 -0.170999E+00  0.861E-02    0.02       1.0  T
  10   -523.2998775  0.747529E-01  0.463E-01    0.01       1.0  T
  11   -523.3594432 -0.595657E-01  0.222E-01    0.01       1.0  T
  12   -523.3755931 -0.161500E-01  0.636E-02    0.02       1.0  T
  13   -523.3755257  0.674773E-04  0.640E-02    0.02       1.0  T
  14   -523.3750625  0.463189E-03  0.743E-02    0.01       1.0  T
  15   -523.3768332 -0.177069E-02  0.208E-02    0.02       1.0  T
  16   -523.3768981 -0.649584E-04  0.147E-02    0.02       1.0  T
  17   -523.3769287 -0.306026E-04  0.107E-02    0.02       1.0  T
  18   -523.3769363 -0.759389E-05  0.896E-03    0.02       1.0  T
  19   -523.3769549 -0.185751E-04  0.521E-03    0.02       1.1  T
  20   -523.3769612 -0.634377E-05  0.286E-03    0.02       2.0  T
  21   -523.3769628 -0.154091E-05  0.192E-03    0.02       2.9  T
  22   -523.3769639 -0.115166E-05  0.549E-04    0.02      10.3  T
  23   -523.3769640 -0.312511E-07  0.472E-04    0.02      11.9  T
  24   -523.3769640 -0.378553E-07  0.295E-04    0.02      19.1  T
     SCC iter.                  ...        0 min,  6.871 sec
     gradient                   ...        0 min,  0.366 sec
 * total energy  :  -517.2788665 Eh     change       -0.3151552E-02 Eh
   gradient norm :     0.0125507 Eh/α   predicted    -0.2972830E-02 (  -5.67%)
   displ. norm   :     0.2502304 α      lambda       -0.1438449E-02
   maximum displ.:     0.1567245 α      in ANC's #1, #129, #4, ...

........................................................................
.............................. CYCLE   24 ..............................
........................................................................

 iter      E             dE          RMSdq      gap      omega  full diag
   1   -523.3728040 -0.523373E+03  0.130E-01    0.02       0.0  T
   2   -522.4561620  0.916642E+00  0.166E+00    0.00       1.0  T
   3   -523.0758786 -0.619717E+00  0.921E-01    0.01       1.0  T
   4   -523.3378276 -0.261949E+00  0.337E-01    0.00       1.0  T
   5   -523.3685315 -0.307039E-01  0.166E-01    0.01       1.0  T
   6   -523.1874886  0.181043E+00  0.735E-01    0.01       1.0  T
   7   -523.3696807 -0.182192E+00  0.168E-01    0.02       1.0  T
   8   -523.3598463  0.983444E-02  0.225E-01    0.01       1.0  T
   9   -523.3659700 -0.612366E-02  0.186E-01    0.02       1.0  T
  10   -523.3579746  0.799536E-02  0.238E-01    0.01       1.0  T
  11   -523.3767103 -0.187357E-01  0.563E-02    0.02       1.0  T
  12   -523.3482421  0.284682E-01  0.288E-01    0.01       1.0  T
  13   -523.3777138 -0.294717E-01  0.130E-02    0.02       1.0  T
  14   -523.3776162  0.975914E-04  0.207E-02    0.02       1.0  T
  15   -523.3776105  0.569274E-05  0.200E-02    0.02       1.0  T
  16   -523.3777127 -0.102211E-03  0.881E-03    0.02       1.0  T
  17   -523.3777351 -0.223606E-04  0.327E-03    0.02       1.7  T
  18   -523.3777308  0.424647E-05  0.481E-03    0.02       1.2  T
  19   -523.3777366 -0.570774E-05  0.236E-03    0.02       2.4  T
  20   -523.3777354  0.118681E-05  0.291E-03    0.02       1.9  T
  21   -523.3777378 -0.245731E-05  0.115E-03    0.02       4.9  T
  22   -523.3777378  0.655125E-07  0.121E-03    0.02       4.6  T
  23   -523.3777371  0.640498E-06  0.182E-03    0.02       3.1  T
  24   -523.3777382 -0.107275E-05  0.467E-04    0.02      12.1  T
  25   -523.3777382 -0.770092E-08  0.446E-04    0.02      12.6  T
  26   -523.3777383 -0.594587E-07  0.162E-04    0.02      34.9  T
     SCC iter.                  ...        0 min,  7.816 sec
     gradient                   ...        0 min,  0.398 sec
 * total energy  :  -517.2798850 Eh     change       -0.1018455E-02 Eh
   gradient norm :     0.0132157 Eh/α   predicted    -0.7642598E-03 ( -24.96%)
   displ. norm   :     0.2317439 α      lambda       -0.9484657E-03
   maximum displ.:     0.1436717 α      in ANC's #1, #4, #129, ...

........................................................................
.............................. CYCLE   25 ..............................
........................................................................

 iter      E             dE          RMSdq      gap      omega  full diag
   1   -523.3683209 -0.523368E+03  0.190E-01    0.02       0.0  T
[...]
    20   6 C       29   1 H                                       1.0822594
    21   6 C       30   1 H                                       1.0811160
    25   6 C       31   1 H                                       1.0839195
    24   6 C       32   1 H                                       1.0813087
    26   6 C       33   1 H                                       1.0884773
    28   6 C       35   8 O                                       1.2311327
    28   6 C       37   7 N                                       1.3992790
    36   7 N       38   6 C                                       1.3027847
    37   7 N       38   6 C                                       1.4076405
    37   7 N       39   6 C                                       1.4634227
    39   6 C       41   1 H                                       1.0990102
    39   6 C       42   1 H                                       1.0942755
    43   6 C       44   8 O                                       1.1736968
    40   6 C       45   7 N                                       1.4210902
    40   6 C       47   1 H                                       1.0980396
    48   6 C       49   6 C                                       1.5346317
    49   6 C       50   1 H                                       1.0884242
    49   6 C       51   1 H                                       1.0855903
    49   6 C       52   1 H                                       1.0856669
    48   6 C       53   1 H                                       1.0974920
    48   6 C       54   8 O                                       1.4115213
    54   8 O       55   1 H                                       0.9767065
    56   7 N       58   6 C                                       1.4140828
    58   6 C       59   1 H                                       1.0984547
    60   6 C       61   1 H                                       1.0921740
    60   6 C       62   1 H                                       1.0954789
    63   6 C       64   6 C                                       1.3911780
    64   6 C       65   1 H                                       1.0796704
    64   6 C       66   6 C                                       1.3815829
    66   6 C       67   1 H                                       1.0789884
    66   6 C       68   6 C                                       1.3918111
    68   6 C       69   8 O                                       1.3580620
    69   8 O       70   1 H                                       0.9721202
    68   6 C       71   6 C                                       1.3936445
    71   6 C       72   1 H                                       1.0810164
    63   6 C       73   6 C                                       1.3917957
    71   6 C       73   6 C                                       1.3827674
    73   6 C       74   1 H                                       1.0807516
    75   6 C       76   8 O                                       1.2232792
    75   6 C       77   7 N                                       1.3461562
    77   7 N       78   1 H                                       1.0110019
    77   7 N       79   6 C                                       1.4442809
    79   6 C       80   1 H                                       1.0970297
    79   6 C       81   6 C                                       1.5234193
    81   6 C       82   1 H                                       1.0909445
    81   6 C       83   1 H                                       1.0919400
    84   6 C       85   8 O                                       1.2223876
    84   6 C       86   7 N                                       1.3395948
    86   7 N       87   1 H                                       1.0099168
    86   7 N       88   1 H                                       1.0058679
    89   6 C       90   8 O                                       1.2284019
    89   6 C       91   7 N                                       1.3323233
    91   7 N       92   1 H                                       1.0098689
    91   7 N       93   6 C                                       1.4462529
    93   6 C       94   1 H                                       1.0916746
    93   6 C       95   6 C                                       1.5215220
    95   6 C       96   1 H                                       1.0910868
    95   6 C       97   1 H                                       1.0901329
    99   6 C      100   8 O                                       1.2294890
    99   6 C      101   7 N                                       1.3345241
   101   7 N      102   1 H                                       1.0127307
   101   7 N      103   6 C                                       1.4471411
   103   6 C      104   1 H                                       1.0982260
   105   6 C      106   1 H                                       1.0949660
   105   6 C      107   1 H                                       1.0870697
   105   6 C      108   6 C                                       1.4792638
   108   6 C      109   7 N                                       1.3685891
   109   7 N      110   1 H                                       1.0120770
   109   7 N      111   6 C                                       1.3395215
   111   6 C      112   1 H                                       1.0709344
   111   6 C      113   7 N                                       1.3137288
   108   6 C      114   6 C                                       1.3673710
   113   7 N      114   6 C                                       1.3652808
   114   6 C      115   1 H                                       1.0680587
   116   6 C      117   8 O                                       1.2256089
   116   6 C      118   7 N                                       1.3388778
   118   7 N      119   1 H                                       1.0100751
   118   7 N      120   6 C                                       1.4454262
   120   6 C      121   1 H                                       1.0951746
   120   6 C      122   6 C                                       1.5368798
   122   6 C      123   1 H                                       1.0918258
   122   6 C      124   1 H                                       1.0907426
   125   6 C      126   8 O                                       1.2217586
   125   6 C      127   7 N                                       1.3317645
   127   7 N      128   1 H                                       1.0073429
   127   7 N      129   1 H                                       1.0054123
   130   6 C      131   8 O                                       1.1792723
   132   7 N      134   6 C                                       1.3669541
   134   6 C      135   1 H                                       1.0923287
   136   6 C      137   1 H                                       1.0907306
   136   6 C      138   1 H                                       1.0890886
   136   6 C      139   6 C                                       1.5361404
   139   6 C      140   1 H                                       1.0904060
   139   6 C      141   1 H                                       1.0894919
   139   6 C      142   6 C                                       1.5274547
   142   6 C      143   1 H                                       1.0951137
   142   6 C      144   1 H                                       1.0947735
   142   6 C      145   7 N                                       1.4495135
   145   7 N      146   1 H                                       1.0078080
   145   7 N      147   6 C                                       1.3311123
   147   6 C      148   7 N                                       1.3273692
   148   7 N      149   1 H                                       1.0042757
   148   7 N      150   1 H                                       1.0055921
   147   6 C      151   7 N                                       1.3298898
   151   7 N      152   1 H                                       1.0050152
   151   7 N      153   1 H                                       1.0055279
   154   6 C      155   8 O                                       1.1602613
   156   7 N      158   6 C                                       1.4208572
   158   6 C      159   1 H                                       1.0956970
   160   6 C      161   1 H                                       1.0958046
   160   6 C      162   1 H                                       1.0929770
   160   6 C      163   8 O                                       1.4008234
   163   8 O      164   1 H                                       0.9668960 (min)
   165   6 C      166   8 O                                       1.2292999
   165   6 C      167   7 N                                       1.3400672
   167   7 N      168   1 H                                       1.0152152
   167   7 N      169   6 C                                       1.4429000
   169   6 C      170   1 H                                       1.0965893
   171   6 C      172   1 H                                       1.1034176
   171   6 C      173   6 C                                       1.5224930
   173   6 C      174   1 H                                       1.0879309
   173   6 C      175   1 H                                       1.0847159
   173   6 C      176   1 H                                       1.0862176
   171   6 C      177   8 O                                       1.4022888
   177   8 O      178   1 H                                       0.9708868
   179   6 C      180   8 O                                       1.2281160
   179   6 C      181   7 N                                       1.3387220
   181   7 N      182   1 H                                       1.0170443
   181   7 N      183   6 C                                       1.4420003
   183   6 C      184   1 H                                       1.1023454
   185   6 C      186   1 H                                       1.0879311
   185   6 C      187   1 H                                       1.0968504
   189   6 C      190   8 O                                       1.2260329
   189   6 C      191   7 N                                       1.3271808
   191   7 N      192   1 H                                       1.0108828
   191   7 N      193   6 C                                       1.4332315
   193   6 C      194   1 H                                       1.0902953
   195   6 C      196   1 H                                       1.0991277
   195   6 C      197   1 H                                       1.0867309
   195   6 C      198   8 O                                       1.4048241
   198   8 O      199   1 H                                       0.9899821
   200   6 C      201   8 O                                       1.2282081
   200   6 C      202   7 N                                       1.3288157
   202   7 N      203   1 H                                       1.0167031
   202   7 N      204   6 C                                       1.4463673
   204   6 C      205   1 H                                       1.0927291
   204   6 C      206   6 C                                       1.5316616
   206   6 C      207   1 H                                       1.0869854
   206   6 C      208   1 H                                       1.0851025
   206   6 C      209   1 H                                       1.0861599
   210   6 C      211   8 O                                       1.1876234
   212   7 N      214   6 C                                       1.4149475
   214   6 C      215   1 H                                       1.0931183
   216   6 C      217   1 H                                       1.0907735
   216   6 C      218   1 H                                       1.0933977
   216   6 C      219   6 C                                       1.5150624
   219   6 C      220   1 H                                       1.0947573
   219   6 C      221   6 C                                       1.5260437
   221   6 C      222   1 H                                       1.0918501
   221   6 C      223   1 H                                       1.0827102
   221   6 C      224   1 H                                       1.0839831
   219   6 C      225   6 C                                       1.5204143
   225   6 C      226   1 H                                       1.0883777
   225   6 C      227   1 H                                       1.0822326
   225   6 C      228   1 H                                       1.0867125
   229   6 C      230   8 O                                       1.2228638
   229   6 C      231   7 N                                       1.3334180
   231   7 N      232   1 H                                       1.0086074
   231   7 N      233   6 C                                       1.4367785
   233   6 C      234   1 H                                       1.0910763
   233   6 C      235   6 C                                       1.5281038
   235   6 C      236   1 H                                       1.0902485
   235   6 C      237   1 H                                       1.0933340
   235   6 C      238   6 C                                       1.5208521
   238   6 C      239   1 H                                       1.0919952
   238   6 C      240   6 C                                       1.5303223
   240   6 C      241   1 H                                       1.0856960
   240   6 C      242   1 H                                       1.0843125
   240   6 C      243   1 H                                       1.0867184
   238   6 C      244   6 C                                       1.5251919
   244   6 C      245   1 H                                       1.0889385
   244   6 C      246   1 H                                       1.0799273
   244   6 C      247   1 H                                       1.0885924
   248   6 C      249   8 O                                       1.2295443
   248   6 C      250   7 N                                       1.3289920
   250   7 N      251   1 H                                       1.0117073
   250   7 N      252   6 C                                       1.4420421
   252   6 C      253   1 H                                       1.0897892
   252   6 C      254   6 C                                       1.5297481
   254   6 C      255   1 H                                       1.0825210
   254   6 C      256   1 H                                       1.0951949
   254   6 C      257   6 C                                       1.5250004
   257   6 C      258   1 H                                       1.0881796
   257   6 C      259   1 H                                       1.0924730
   263   6 C      264   8 O                                       1.2281842
   263   6 C      265   7 N                                       1.3236308
   265   7 N      266   1 H                                       1.0127843
   265   7 N      267   6 C                                       1.4360264
   267   6 C      268   1 H                                       1.0961946
   267   6 C      269   6 C                                       1.5322263
   269   6 C      270   1 H                                       1.0924695
   269   6 C      271   1 H                                       1.0892793
   272   6 C      273   6 C                                       1.3885933
   273   6 C      274   1 H                                       1.0791230
   273   6 C      275   6 C                                       1.3824409
   275   6 C      276   1 H                                       1.0777337
   275   6 C      277   6 C                                       1.3836897
   277   6 C      278   1 H                                       1.0751920
   277   6 C      279   6 C                                       1.3855523
   279   6 C      280   1 H                                       1.0760575
   272   6 C      281   6 C                                       1.3861848
   279   6 C      281   6 C                                       1.3785431
   281   6 C      282   1 H                                       1.0835067
   283   6 C      284   8 O                                       1.2299804
   283   6 C      285   7 N                                       1.3271629
   285   7 N      286   1 H                                       1.0095574
   285   7 N      287   6 C                                       1.4308149
   287   6 C      288   1 H                                       1.0931106
   289   6 C      290   1 H                                       1.0968268
   289   6 C      291   6 C                                       1.5214012
   291   6 C      292   1 H                                       1.0874626
   291   6 C      293   1 H                                       1.0843285
   291   6 C      294   1 H                                       1.0867771
   289   6 C      295   6 C                                       1.5267391
   295   6 C      296   1 H                                       1.0869527
   295   6 C      297   1 H                                       1.0898534
   295   6 C      298   1 H                                       1.0888228
   299   6 C      300   8 O                                       1.2199296
   299   6 C      301   7 N                                       1.3392615
   301   7 N      302   1 H                                       1.0141900
   301   7 N      303   6 C                                       1.4350964
   303   6 C      304   1 H                                       1.0994085
   305   6 C      306   1 H                                       1.0942942
   305   6 C      307   6 C                                       1.5070981
   307   6 C      308   1 H                                       1.0869131
   307   6 C      309   1 H                                       1.0868414
   307   6 C      310   1 H                                       1.0880259
   305   6 C      311   8 O                                       1.3829371
   311   8 O      312   1 H                                       0.9708298
   313   6 C      314   8 O                                       1.1567385
    98  16 S      315  29 Cu                                      2.1320369
   188  16 S      315  29 Cu                                      2.1653558 (max)

 * 7 distinct bonds (by element types)

   Z      Z             #   av. dist./Å        max./Å        min./Å
   1 H    6 C         114     1.0891466     1.1034176     1.0680587
   6 C    6 C          45     1.4655588     1.5379465     1.3629875
   1 H    7 N          23     1.0099654     1.0170443     1.0042757
   6 C    7 N          46     1.3810667     1.4634227     1.3027847
   1 H    8 O           6     0.9745702     0.9899821     0.9668960
   6 C    8 O          28     1.2499908     1.4115213     1.1567385
  16 S   29 Cu          2     2.1486964     2.1653558     2.1320369


optimized geometry written to: xtbopt.xyz


           -------------------------------------------------
          | TOTAL ENERGY             -517.281653339070 Eh   |
          | GRADIENT NORM               0.002177555911 Eh/α |
          | HOMO-LUMO GAP               0.018723063681 eV   |
           -------------------------------------------------

------------------------------------------------------------------------
 * finished run on 2024/01/20 at 14:34:50.410     
------------------------------------------------------------------------
 total:
 * wall-time:     0 d,  0 h,  4 min, 51.018 sec
 *  cpu-time:     0 d,  1 h, 48 min, 21.554 sec
 * ratio c/w:    22.341 speedup
 SCF:
 * wall-time:     0 d,  0 h,  0 min, 24.768 sec
 *  cpu-time:     0 d,  0 h,  9 min, 10.461 sec
 * ratio c/w:    22.225 speedup
 ANC optimizer:
 * wall-time:     0 d,  0 h,  4 min, 25.991 sec
 *  cpu-time:     0 d,  1 h, 39 min,  5.953 sec
 * ratio c/w:    22.354 speedup
