315
 energy: -517.214676941005 gnorm: 0.001176584892 xtb: 6.6.1 (8d0f1dd)
N           37.52364745264454       27.12736233138314       35.91015782221488
H           38.23499997674828       27.84591418165723       35.78268258336622
C           36.32595461407699       27.42582424028990       35.39179168683638
H           35.53862886431727       26.75792808547207       35.73860201918141
C           35.88198297204570       28.91089774245959       35.33107509145696
H           36.71350853903002       29.50241784641997       34.94679132767486
H           35.02928765385999       29.05064123527590       34.66544745772199
C           35.51740900176360       29.37011743653087       36.75523532285494
H           36.13869467292247       28.81388108257584       37.46473612866740
C           35.80176625414563       30.86646417292398       36.94908413125944
H           35.53347970893709       31.44567396241526       36.06942248433617
H           35.19585028524019       31.24524856787612       37.77061836537391
H           36.83259759690516       31.07184021822343       37.20990943602863
C           34.04772265406693       29.05171140743980       37.02295805674725
H           33.83824987140195       28.00520739216779       36.82428892959580
H           33.80348648336126       29.26515398416292       38.05989131777592
H           33.41761012050860       29.67050620878710       36.38814167818184
C           36.56891804819939       27.17773227776738       33.83497258139115
O           37.44007555237434       27.60009792775745       33.19368887872039
C           38.10367272376055       39.34013983220954       38.73894436207598
C           39.33802607004600       39.61052689510318       38.22805731232715
C           39.77257752930204       39.04809602900236       36.98596656980423
C           37.15585356493745       38.49475844176622       38.08478717944160
C           37.58785318567449       37.94189985316346       36.85175434677132
C           38.81763612877656       38.20337057697535       36.32679127029697
C           35.87087110987945       38.22969715455933       38.63645350534079
C           34.75396700863780       37.49201486590678       38.23052825241501
C           33.50053887635498       37.39181851415407       39.01691016544638
H           37.81579307037292       39.77837033693350       39.68562296459717
H           40.02385195231762       40.25377761636526       38.76024775247341
H           39.11423686836305       37.74944692148346       35.38909195113162
H           36.93014543853161       37.26475918606602       36.32605800590139
H           35.68809326373365       38.71137581508300       39.59527920788411
O           40.92736424415087       39.26306090837032       36.51782318988545
O           33.14963614413860       37.88052710147325       40.09345415501555
N           34.56566117081802       36.72268241134412       37.09326979878510
N           32.65723306931110       36.55148912568102       38.27416745784856
C           33.38682278509539       36.16613988482260       37.13503619606257
C           31.31070789921700       36.22533269267716       38.69497098160131
C           32.76944275651856       35.34629268975229       36.01221512972401
H           30.85877073393513       37.16669551837542       39.04352482990908
H           30.76997516151969       35.83628758346583       37.82552811516320
C           31.16026134266122       35.24241823145007       39.81583397876467
O           30.53663896005965       35.25179425009751       40.81360958257880
N           31.98333402217636       36.28593103070116       35.28877938927480
H           32.60571110319911       36.88847578469808       34.75605674791506
H           32.11782187893233       34.57269493014323       36.43734260502726
C           33.79997108733383       34.65050711766085       35.05698382640504
C           34.81678030079382       35.64597658290808       34.48785209426734
H           35.82105201723838       35.23662540412551       34.52371556226465
H           34.84871847135232       36.55180856753765       35.08589716319994
H           34.58118624826357       35.91454628886340       33.46203213731189
H           33.19303720180099       34.21981436944048       34.25258028833356
O           34.45908578542259       33.53170651465149       35.61586979935672
H           35.14352206828371       33.84699337710032       36.22170756000639
N           42.80504040293042       39.04334867115288       27.80674879016408
H           43.17418439185877       38.09248410379490       27.76758674599081
C           42.62633057621954       39.39782989254297       29.16047388769413
H           42.35419359731749       40.46152482800421       29.18103863119940
C           41.47640543276960       38.58463648117619       29.83389687053758
H           40.84510076367098       38.20175570471455       29.02984340683656
H           41.91072779566269       37.72962117828347       30.36200675903551
C           40.64405846722812       39.41424008551826       30.76005064406763
C           39.56397576711853       40.12611897793644       30.24919203132129
H           39.39333722351318       40.12029230469177       29.18305023010321
C           38.69458897095734       40.80579740841622       31.07555029099259
H           37.85246926169886       41.33302762159698       30.65326194036300
C           38.90230987804478       40.81725384771182       32.45254197775394
O           38.07953597108430       41.55012102479378       33.25622828168933
H           37.38119507509821       41.96404007312122       32.72319607982131
C           39.99672271830467       40.12839609163526       32.97646982054228
H           40.14381192658781       40.10559885322840       34.04683506141410
C           40.84761386665036       39.42522279055027       32.13772644715218
H           41.66381866021870       38.86716419289903       32.57246896210997
C           43.88284449487202       39.17919968921812       30.02144450340768
O           44.59828608852267       38.19380513264316       29.90509194835501
N           44.14265521121827       40.18722324370687       30.86869429492072
H           43.38840600693361       40.81258629783202       31.11512521646352
C           45.27869045750199       40.15444462999279       31.76038160772396
H           46.07884503058699       39.61200406896039       31.24161026932574
C           45.71453508193527       41.58111440581640       32.06813599554900
H           44.84557554871480       42.18542114716089       32.33108962250900
H           46.39699951865465       41.57318162161703       32.92010104205774
C           46.45694486991795       42.11184685191841       30.84827252884172
O           47.33317949780803       41.44878844429432       30.30868227082346
N           46.10144204233904       43.32871346231928       30.43830668913813
H           46.50490556563134       43.67316197886196       29.57937164297520
H           45.24804333376171       43.75344135828589       30.76466701259731
C           44.93216255903722       39.42160659338307       33.04740755260750
O           43.77074473989095       39.15319597869966       33.33492491187224
N           45.98142140053408       39.12429923117519       33.81463597573030
H           46.91538322091710       39.33952623655833       33.49853507537502
C           45.86212385921989       38.47357965282122       35.10166983567678
H           44.97867027192903       37.83201614930436       35.10317860857515
C           47.13133647351140       37.69337258541334       35.40597908614581
H           47.07850445674704       37.31086397001641       36.42639687080937
H           48.00556179583024       38.33346229908642       35.28749647436365
S           47.24707712350830       36.29673284328310       34.26181097330650
C           45.78773959032868       39.56366553310527       36.14681136938773
O           46.50305497753895       40.53805487204469       35.96333559996101
N           44.99737645584451       39.41911204231823       37.21166006388008
H           44.44852762499384       38.57344298529685       37.30832477048964
C           44.92407527495119       40.45130002077114       38.22376240416784
H           45.82822179813729       41.05697473823875       38.07338163415153
C           43.67997541011647       41.37418620886523       38.10710355506957
H           42.80347263962647       40.82866740222487       38.47049417264770
H           43.82116230640224       42.27512112350293       38.69863991588170
C           43.42325163030174       41.77083429035415       36.70527089802435
N           42.80653066316604       40.92886214251143       35.82249741749180
H           42.37441433794542       40.04359219271151       36.03582351508684
C           42.72507334664134       41.57674701694833       34.65475079461181
H           42.28384586938991       41.15433137301797       33.77567800174995
N           43.27114589394041       42.76947719444065       34.72379402424091
C           43.70660094096227       42.91302581565079       36.00955463468138
H           44.18395299848719       43.81279026566632       36.33139548319403
C           44.90306127859493       39.84518537634889       39.60933972513122
O           44.97228271022978       38.64130012618789       39.80996710806497
N           44.79347215206387       40.76080724816553       40.58844862805638
H           44.84553680978034       41.74164422383756       40.35066343672909
C           44.66992594576447       40.45392510102527       41.98845194618068
H           44.61854079691764       39.36710762813409       42.09492285752179
C           45.76484743231212       41.09312182336731       42.85431876900486
H           45.64392381968117       42.17835899553153       42.85608104895408
H           45.65311229341670       40.73260820839056       43.87847060344622
C           47.19958731493519       40.82947767774049       42.41643471862131
O           47.97625758902910       41.76385111779202       42.28314493353511
N           47.55217416335913       39.55325615067265       42.27868624364613
H           48.48682028498284       39.33889368047900       41.96828092428808
H           46.87784355780828       38.80936820279479       42.33313860841604
C           43.41436368913693       41.12755933231459       42.49796793492416
O           43.21893438606828       42.28848334450948       42.59829024148566
N           42.82091349659679       45.97351176423922       33.70691783581508
H           43.05606444148926       44.99263485326363       33.85317979666886
C           43.63131015659224       46.62933839486276       32.86791041265231
H           43.44518247110786       47.70267580632265       32.86138675052815
C           45.14460058941138       46.24682353643411       32.91555439549713
H           45.26464801856626       45.18082368008837       32.73181902708841
H           45.68684623486035       46.80678991481865       32.15344514411503
C           45.67884773493468       46.56357935319591       34.31565828666871
H           44.99881846921971       47.24968649805029       34.82258751128435
H           45.72531451291049       45.64486408801524       34.89854184629876
C           47.06260193094396       47.20822704916453       34.20080899173335
H           47.72529049796294       46.50945964775804       33.67937592890595
H           46.97537139608298       48.13264210306934       33.62072864249190
N           47.59500106603164       47.50092739100779       35.51676850807088
H           46.97612851319420       47.36190453814336       36.30011524318144
C           48.78171846487584       48.07013818814379       35.71671599650032
N           49.61049445499378       48.28082404084294       34.70179692651941
H           49.37245962484231       47.99551005506873       33.76886603061789
H           50.51618035907774       48.68833096119725       34.85930898113749
N           49.13580408452729       48.43549121293938       36.94519034119243
H           48.53989230379019       48.24608266966423       37.73206138699781
H           50.05182505371762       48.80909836968000       37.12563328983043
C           43.39022007108449       46.01221602202013       31.44245506088626
O           43.76212178965523       44.99660072638442       31.02719796744386
N           44.30296440126295       35.66949288717556       42.93076026324934
H           43.87455658113239       34.75708654122086       43.07335890032510
C           45.19295293265239       35.61576172646085       41.82931620822244
H           45.55264772604905       36.62688132292398       41.61090191542817
C           46.41009828107799       34.68326911318958       42.13786649746623
H           46.45113730746092       34.53004894132266       43.22162001917394
H           46.22303159156527       33.72053604261235       41.65187575925744
O           47.62197214978517       35.16269029797071       41.63938527098318
H           47.98858392716492       35.81338324420445       42.25583870140505
C           44.42972469692614       35.05801361739525       40.63503253151241
O           44.12898829736624       33.86561514784374       40.57958632068851
N           44.00572668319924       35.97662429553010       39.75938872464806
H           44.38859429517103       36.91746935302046       39.76149242089766
C           43.06713576486492       35.63358336419914       38.71707575196439
H           42.77357957857780       34.59246155851175       38.89379985570220
C           41.80033440915726       36.53259629673167       38.82389229138576
H           42.07673046703918       37.54342578995525       38.47375207587599
C           40.68652682821130       36.01523583528434       37.92092912259465
H           40.93870909491037       36.17907156423900       36.87505765588391
H           40.50452392506438       34.95657425279018       38.07155213156477
H           39.76206148116164       36.54415663976265       38.13455139461290
O           41.32591429326691       36.61579704843794       40.14814428741816
H           42.04781426093012       36.90473707453722       40.72807610691938
C           43.64871293522769       35.73010734427843       37.30602489705942
O           44.18386692269644       36.75999771123663       36.89603460423662
N           43.49005223944462       34.62691895383271       36.56360764976311
H           43.13490437624192       33.77078298168467       36.98244579159788
C           43.78929134258917       34.60430519688489       35.15195557058079
H           43.86745904138286       35.66859735295706       34.87567094013470
C           45.12002446111170       33.93718192632951       34.68460618524529
H           45.59777481350372       34.58714253625739       33.95575027101658
H           44.86368443542605       32.99459135654111       34.18641435461565
S           46.31852426286635       33.45170720675186       35.95910257054162
C           42.59333984611075       34.04759030325177       34.38555670112246
O           41.80253214134672       33.23323064014497       34.85467515234314
N           42.44974272838459       34.55680136632598       33.16960463129071
H           43.07048625535921       35.25863256765957       32.78760851819223
C           41.38538841649847       34.12815466178604       32.30789743035853
H           41.12371734638534       33.10805852218206       32.59476941951493
C           40.12686717496592       35.02937153182644       32.43013097052544
H           39.95872379090067       35.54479442491184       31.47395197887737
H           39.25290385886574       34.42444176379961       32.65064762442233
O           40.30470151554060       36.03028051231773       33.41118898697027
H           39.63395362314895       35.90981782762879       34.10025992499835
C           41.94697222912420       34.14273748340506       30.89983565895524
O           42.91968840125784       34.83294246258368       30.64118701175266
N           41.33755861360915       33.36438474290081       30.00821009268377
H           40.67457715467815       32.67720754338838       30.35811850290565
C           41.82886352046291       33.23870920863224       28.65658292788836
H           42.43710985985664       34.11369660219876       28.42455229240559
C           42.60420241650418       31.92820914054266       28.47748265303083
H           42.88404889357629       31.79102591821986       27.43744307962851
H           43.50292354819711       31.97826776577883       29.08704224316207
H           41.99309532444035       31.09101275410593       28.80434458437109
C           40.62910658030319       33.07396564910299       27.78182779908465
O           39.77881561924455       32.25951674532108       27.93007541438502
N           35.43331795297373       31.06546900274173       27.81084637248440
H           34.73985370554067       30.39749226416498       28.14938754959021
C           36.17263469551117       31.54673122112121       28.91518093476293
H           36.99482314546454       32.13789851621518       28.50177218339539
C           35.30232624758617       32.40712746895258       29.86741983564777
H           35.04103250911793       33.32395096147671       29.33776850520788
H           34.38180383930345       31.85203190966721       30.06617077976901
C           35.99277725693278       32.74052535312467       31.17418488415221
H           36.14123388516045       31.82653487705081       31.75830618377853
C           37.33220538179607       33.41852222585340       30.89719420558405
H           37.30559455636853       34.44267221797199       31.27350679634451
H           38.15476915651938       32.93181628762724       31.40733585158690
H           37.55904022732549       33.48965958354552       29.83991613117493
C           35.11624833587172       33.68386298883680       31.98320557344462
H           34.14700289479667       33.23515460406546       32.19158843489313
H           35.59982914351562       33.89754619137658       32.92826466384973
H           34.96175344027949       34.61498445482123       31.44463555843094
C           36.72903231149806       30.42277112247469       29.79628479857190
O           36.10008006903966       29.40467227729351       30.04826124583787
N           37.94423671703976       30.69309822865774       30.26338399777131
H           38.46476651074114       31.46076009270764       29.86688316232556
C           38.68962581798934       29.81411039624113       31.12019791688097
H           37.98285620974998       29.12888229984380       31.58821866907538
C           39.71841413218731       29.07246034862717       30.26793340736586
H           39.19380604609272       28.38482236189068       29.60390385936678
H           40.23282623721332       29.81540521955436       29.65303284799561
C           40.72126248449810       28.33400332885740       31.14080739226995
H           41.16133946761855       29.06149929340650       31.82545462951867
C           39.99924244343267       27.25190691800302       31.94700055265093
H           38.99872224011362       27.08873536986844       31.55794939873817
H           40.51532224133789       26.30001572345978       31.87907213896873
H           39.93006008018014       27.51333388408754       32.99911842782851
C           41.80137223436839       27.75462741953802       30.23320191697919
H           42.31434246256647       28.55540734424173       29.70271139083723
H           42.54244783719622       27.17634368488531       30.76507692237439
H           41.33449610356561       27.10822912254380       29.49202099643147
C           39.39223265887215       30.68312144615348       32.14834012864699
O           40.05841127441209       31.64868061897737       31.77319362545688
N           39.21630420551934       30.33122418801782       33.41749422464265
H           38.71700093785076       29.47475663888382       33.62096318766120
C           39.73608528875474       31.05037538681604       34.55550601260427
H           40.39881019889569       31.83502517831849       34.19178167260851
C           38.59646262276586       31.65547534795820       35.36813577709491
H           37.86640059372138       30.87612412430866       35.54990796333119
H           38.98205367640580       31.98012897107259       36.33950343684500
C           37.96538876742765       32.85946027710565       34.69565835952535
H           38.57767841185503       33.21995043983592       33.87301759912907
H           36.96919713277545       32.63477277468272       34.30690010968740
C           37.80634657103038       33.99672787332860       35.72124077156818
O           37.79863660077513       35.16610749652700       35.27910603022232
O           37.69141568487380       33.64267461609718       36.91119872331200
C           40.48182837830912       30.16933874914799       35.53710138766941
O           40.10869481045943       29.04295592398811       35.84101367076784
N           41.52183829362652       30.74651530935569       36.11806208159971
H           41.79969313992965       31.69546275398051       35.89521382652345
C           42.21277323567459       30.03671979272730       37.16012764058168
H           41.55484500738935       29.21244641983558       37.45816699468691
C           43.54722078744587       29.45725253813110       36.68456468743138
H           44.21693593043132       30.27521667932902       36.40876192874899
H           43.99318723689486       28.88939272306590       37.50023337793549
C           43.24060368111412       28.58339721352459       35.51184682064422
C           42.84444574280553       27.26452237799087       35.68951233369759
H           42.79059290314655       26.85770873714976       36.68783435769122
C           42.55819640741518       26.47348974386968       34.59222373427836
H           42.26740653344937       25.44405855306811       34.72395111338000
C           42.66283395215807       27.01486286180484       33.32322508488055
H           42.53129578569919       26.35630613532696       32.48364212078909
C           43.01332790121841       28.34238266870829       33.13790415672531
H           43.17435498605192       28.75162311624781       32.15597491649152
C           43.28059150996649       29.12889162624735       34.23805764255637
H           43.56509957358023       30.16654278976029       34.11350631550911
C           42.38804398690419       31.01357959360325       38.27740056174132
O           42.70574101672864       32.18454645308846       38.07181695254209
N           42.10829722832116       30.54441094065103       39.48199297647377
H           41.73417597294494       29.62428655027948       39.66160512964070
C           42.13101508372318       31.50267111587229       40.54660470249158
H           42.87756612745562       32.25460467503517       40.27693862412173
C           40.77246144134839       32.22143355071366       40.71366713943328
H           40.10268104187024       31.56444355577177       41.28211761966609
C           40.98025518937151       33.52092490316777       41.47696537244695
H           41.39074145235001       33.33488771874917       42.46739863832529
H           41.65740937483947       34.17241202233251       40.93465105264688
H           40.03731200823545       34.05007669628254       41.58525402967157
C           40.10696891308814       32.51971513654141       39.37311780628501
H           39.19394276519136       33.09435105404084       39.51946877910784
H           40.75876266947483       33.10174347048564       38.73037416216504
H           39.83239131206977       31.61183999997695       38.83697532305206
C           42.51008362286977       30.76705583743686       41.79519219181707
O           41.99062052499925       29.70762959936663       42.09627798144287
N           43.45944749803428       31.36755682014487       42.51636816635689
H           43.85641645750932       32.23646640416509       42.17651742754558
C           43.89636003185175       30.82034896951673       43.76276706411393
H           43.21202370427802       30.01561753391011       44.03873979565497
C           45.34144815818057       30.25866953914796       43.61451476867115
H           46.02992258776283       31.10361920795370       43.46753787123935
C           45.64551047879635       29.51458629994964       44.88912996492772
H           44.97907709346512       28.66181961447451       44.97577980472342
H           46.66871762825453       29.14812326460118       44.87347329727849
H           45.50982144453673       30.17376373478344       45.74154542389390
O           45.39573420904524       29.38677425959775       42.52602486610873
H           45.39220282693529       29.86913041886304       41.69143441525600
C           44.02182692988814       31.90514665285362       44.76857815463662
O           44.33940969524384       33.02788174990129       44.55087430957148
Cu          48.01109783678225       34.71660331135250       35.47336917856060
