315
 energy: -517.281653339070 gnorm: 0.002177555911 xtb: 6.6.1 (8d0f1dd)
N           39.39770545555292       27.29513557799922       37.67085780618650
H           39.97695113843228       28.13106151736372       37.61866418106528
C           38.22131676410408       27.38981653644608       37.00687119374113
H           37.52602311224893       26.59670073928390       37.28517347275124
C           37.51252636885765       28.77053940942060       36.91934944840802
H           38.25882974371520       29.51998006923240       36.65099494420492
H           36.74019543148041       28.77425790144127       36.14893843465288
C           36.88845950854093       29.10054519951222       38.28570064413169
H           37.50660462883125       28.64101183561713       39.06359702059978
C           36.86043240490684       30.61525975121038       38.53170011311533
H           36.63131171473322       31.17174854994322       37.62779444347409
H           36.07568355491635       30.85739200477294       39.24629910962156
H           37.78527799616884       30.98689726134449       38.95598712806972
C           35.48282412490166       28.50638318587791       38.34930431235741
H           35.49947426646259       27.44895116178717       38.10395160131642
H           35.07266059782994       28.62690277696880       39.34806478288468
H           34.83417999409755       29.02765260736451       37.64886927509750
C           38.64064740460397       27.22820172091339       35.53601693790486
O           39.47158804740352       27.62012634906139       34.83196864237971
C           37.26914619163955       39.30945243155947       40.67619924189079
C           38.49022596371819       39.81954233402931       40.34107838847371
C           39.19500211051537       39.36605195615034       39.18276798253279
C           36.59367962415595       38.32381337626287       39.89675565175408
C           37.28021078689792       37.90097089975686       38.73030108881649
C           38.49790421865202       38.40196237867633       38.37821472863641
C           35.31923148673882       37.80499697583186       40.26624938388663
C           34.42738531025436       36.88978376633955       39.70429607235189
C           33.12546235596988       36.54041161944351       40.31005617644499
H           36.78177726234946       39.65835474776639       41.57732286751701
H           38.97116271033812       40.55076064876295       40.97576816793441
H           39.00858428818454       38.02507297234799       37.49955585155778
H           36.83223788517985       37.13044006873082       38.11806688255511
H           34.92244934403902       38.21221018619998       41.19443256363316
O           40.39685523361096       39.69103351504787       38.94306132786003
O           32.57215637543562       36.95505867101168       41.32868654442206
N           34.53615035224727       36.13414414072882       38.54548870793833
N           32.55685226259481       35.58203656722440       39.46378124070156
C           33.48824034055743       35.36875545366848       38.43010880861056
C           31.24045903468342       34.98644876782825       39.69613792340859
C           33.18073018810713       34.49738193124645       37.22344504297342
H           30.59127438826202       35.78962525592637       40.07202366960207
H           30.84567264766208       34.64501607793786       38.73436559337185
C           31.15179776468825       33.90914093218974       40.69025314037132
O           31.79535364272245       33.31646374381528       41.47264267907405
N           32.34301759397483       35.29285664590729       36.39582514511278
H           32.90599158192683       36.03464982073061       35.98552036269715
H           32.62797218475177       33.60686200335840       37.55074233971511
C           34.44598013774319       34.00830802971848       36.44351982395615
C           35.33895040539379       35.18018865770792       36.01410874486078
H           36.38916366032201       34.91850301770338       36.12917284546166
H           35.17420553622312       36.03871837499232       36.65776390179225
H           35.15204988755730       35.46177500119703       34.98238702887926
H           34.05622351106427       33.48675760257357       35.56002489560630
O           35.13372079124107       33.01200767031919       37.16932318632954
H           35.82053952692953       33.41579137868551       37.73429589024770
N           43.34750067776564       40.24655295741267       30.48875213948310
H           43.91937179685880       39.40060230210243       30.50162250830764
C           42.92796213169800       40.51605402926141       31.81200056710157
H           42.45715000181666       41.50846473295909       31.80428566568808
C           41.87173167185013       39.48386759576671       32.31261396931713
H           41.43761719960251       39.01801945678968       31.42527303355569
H           42.38320473939473       38.70334534202880       32.88642064277247
C           40.78352706605920       40.11410718890322       33.12277508427173
C           39.66383240343949       40.63442213720050       32.48173526448058
H           39.63724570168595       40.63422268410804       31.40239233362421
C           38.57833593403083       41.11181210881899       33.19065508462563
H           37.71090699129167       41.48389481589265       32.66783851692346
C           38.60816284856164       41.10015052750852       34.58209755310968
O           37.57293329972643       41.55226867840671       35.33590185671115
H           36.85291548701396       41.86579745016257       34.76293459747573
C           39.74032594263398       40.61662165664760       35.23528305770426
H           39.74172048175680       40.57471364706493       36.31548580764189
C           40.80814402659146       40.11455620846942       34.51435290230707
H           41.65323707989648       39.70120046703990       35.04631019955055
C           44.08285144465130       40.51395060868454       32.82345313764610
O           45.02296264756600       39.73485218562956       32.74856468218945
N           44.02374808481920       41.51725028900687       33.71901589870869
H           43.11571441393079       41.91772698460630       33.91193558585080
C           45.02161369960317       41.66319166773544       34.75289808520388
H           45.96757752875850       41.29274596397343       34.33889757990792
C           45.13670607900496       43.13520500389550       35.12804641840334
H           44.13994292086414       43.55478383566780       35.27149152226203
H           45.68224997756461       43.22318885897825       36.06983911343579
C           45.92891727745074       43.85373189465682       34.04653950408374
O           47.03213751566165       43.46263741933175       33.69414563834685
N           45.37918650828950       44.97986804769699       33.57311849768759
H           45.83413022090696       45.43238056772529       32.79325282342074
H           44.40295494601339       45.16827398180652       33.72558212938334
C           44.66201752363742       40.82976403035481       35.97695876549962
O           43.56457952217231       40.29270114452022       36.10409730706498
N           45.63456950997669       40.71943818997447       36.88087013146650
H           46.54094976911875       41.12893010533933       36.70586685761157
C           45.46584444394676       40.02651216755152       38.13905633980617
H           44.71493622785762       39.24265093686838       38.02307532306205
C           46.80417567638472       39.46986771333199       38.60170646787292
H           46.68580090431679       39.04501174997029       39.59968192399981
H           47.55606158204454       40.25910951015221       38.61413831488455
S           47.33011534156286       38.16050139455979       37.46472513745726
C           45.04561380361996       41.05480586390828       39.17458805195014
O           45.54910060568695       42.17600108164685       39.14195131300421
N           44.16522650925734       40.70495979869153       40.11452437820645
H           43.76202974966051       39.77598884453257       40.10623574607083
C           43.76304570956615       41.66763341135771       41.11738389302074
H           44.55224984722943       42.43124166738536       41.10476045999616
C           42.39741941102348       42.35477295870265       40.83361845642874
H           41.59533984926808       41.64798703227683       41.07041463436678
H           42.28872011349247       43.24695739995231       41.44510158286181
C           42.25739721458039       42.74353176857392       39.41323774139939
N           41.92196567534011       41.83133884554233       38.44968937298994
H           41.61397802623397       40.87939459112867       38.60215357599674
C           41.88453538234306       42.49228616825684       37.28518733673341
H           41.64798884137876       42.02518389186957       36.35097025488194
N           42.18969323070272       43.76109671922413       37.43645376244681
C           42.41635355152952       43.94009205024407       38.77083642167300
H           42.67653750094398       44.90013664976382       39.15989664134702
C           43.65457205040038       41.02649225243175       42.48505720397350
O           43.86920699204538       39.84251315078005       42.71795665206748
N           43.26785827412068       41.88776722268932       43.43439983740051
H           43.17725071435385       42.86743643297401       43.20572968600204
C           42.99585325807746       41.52517941282051       44.80691576417370
H           43.14505151041423       40.44460130831958       44.90437340326395
C           43.83991930646950       42.31670371781311       45.81837059012393
H           43.51988463930341       43.36055981221522       45.82342993432916
H           43.66450241255585       41.89909451723554       46.81061581424877
C           45.34658826692209       42.33340301063331       45.56564153641651
O           45.95208851136735       43.38974460383394       45.46461827616847
N           45.93940826584265       41.14316755682865       45.49147771469846
H           46.93210865185686       41.10539357393660       45.32456904389045
H           45.41950149549343       40.28526194894113       45.55892091758164
C           41.58969023565815       41.86285769486955       45.16065423844584
O           40.72196921871799       42.49424883848484       44.67168759219580
N           41.27937088514966       46.85529370662782       36.33165075496830
H           41.67798542605065       45.94354060461342       36.54870572333748
C           42.11982617734472       47.67804722317561       35.63503403670138
H           41.77348316906065       48.71401400466223       35.63400683176351
C           43.63354419758518       47.57129110047958       35.90609971165697
H           43.96669037937129       46.55055374482767       35.71426155101237
H           44.16302261408851       48.24609165787159       35.23497333988655
C           43.89172284998078       47.93744463669834       37.37545412131867
H           43.01933141770465       48.45513517174960       37.77534744420824
H           44.03880901907650       47.02844655376524       37.95776034830359
C           45.12068211490329       48.83977912854491       37.46802361602129
H           45.97257635199120       48.30044627488498       37.04062451107409
H           44.93658829632668       49.75064944373825       36.88927192277355
N           45.40005893380049       49.18342898960167       38.84822014863649
H           44.71926448731236       48.90123368533555       39.53565129502259
C           46.42085601710902       49.95471540949951       39.21557585945403
N           47.32394065245679       50.34995870988333       38.32668353287319
H           47.27862827678285       50.04710912093502       37.37023256248230
H           48.10989617150372       50.90800247190427       38.61317323687395
N           46.53076117645160       50.34005855101167       40.48366023132142
H           45.87940389177879       50.01911836895673       41.17848860446393
H           47.33130132026567       50.86444688511670       40.79226760486853
C           41.95646143117540       47.08184032291133       34.26821727582088
O           41.68007306066053       46.13469718323305       33.65769679002570
N           43.44081815504272       36.70969163449136       45.65309298720806
H           43.14988109679012       35.73356205188851       45.68297606802676
C           44.46402144935406       36.86153465682137       44.67901205879819
H           44.64740965161750       37.92943569077693       44.51619993446829
C           45.77286457862499       36.16167688159623       45.14490128223144
H           45.99424421963053       36.50099274998742       46.16305811523560
H           45.59065906197834       35.08402269915869       45.15272381497115
O           46.86406181074328       36.35496030369148       44.28802558058462
H           47.12258215486008       37.28665420316035       44.28919757868213
C           43.97097936535631       36.20546638974297       43.39859529639261
O           43.86551516361867       34.98231393725647       43.33571993136337
N           43.51803348559354       37.05604230720128       42.46739159685542
H           43.71173548578194       38.05095417035871       42.52476422075034
C           42.80581430625955       36.57970227192151       41.30644200215109
H           42.69411878424579       35.49651952052766       41.43585288121712
C           41.38855217092286       37.21719598071452       41.24527797935475
H           41.49843330371353       38.28125288222702       40.97465036585027
C           40.52165108892132       36.54453474427796       40.18981891176371
H           40.83204553742705       36.83194885990702       39.18750065802707
H           40.56797480729700       35.46328078315324       40.26297858219619
H           39.48554661400797       36.84515696460237       40.31623981163814
O           40.73876737535153       37.09842686038925       42.48224489497962
H           41.29008604847309       37.49684274037674       43.17501728366215
C           43.52077233369929       36.82828905866855       39.98558649795320
O           43.84316782989035       37.95929170449384       39.63180293492143
N           43.69023329849388       35.73980186986941       39.22489281378500
H           43.51904895070003       34.81057838461435       39.60121533929339
C           44.17011219059120       35.82972939821949       37.86806055304678
H           44.07967021478986       36.89979515462014       37.61917355723819
C           45.65155612631016       35.43424021196643       37.58141954678047
H           46.08949084427786       36.18709799091555       36.92948991888114
H           45.64195748808299       34.47960328898267       37.04136696044491
S           46.73777373795375       35.13375932554810       39.00286225948262
C           43.23797968513033       35.07313825938520       36.93732062936525
O           42.67762847999221       34.03628150993129       37.27509437051636
N           43.13403542764623       35.60038794745396       35.72380836522458
H           43.55532059184265       36.48829300922580       35.48710742438871
C           42.30465609580625       35.00875708414338       34.71571356421613
H           42.21765547644516       33.94875600258779       34.95565572510213
C           40.88802258173587       35.65372945318560       34.68250693997197
H           40.83822340436464       36.35379843762831       33.83663171318419
H           40.13787017323201       34.88081238496914       34.53809647605437
O           40.63060477137260       36.42209968089140       35.83005804667491
H           40.06568843913661       35.92232576399999       36.47127563919545
C           43.01036468257279       35.20380283593739       33.38464635005130
O           43.75878871468051       36.16114380544473       33.20616745587861
N           42.71229758998547       34.31770369689031       32.44032899180011
H           42.16931777774184       33.50348302738626       32.71583326238719
C           43.35416706711737       34.32335342037847       31.14420027111676
H           43.82103554546128       35.30015373057397       30.99603919607669
C           44.38687238751577       33.19491016945172       31.06595386869637
H           43.90717143941274       32.23964182333473       31.26315022645867
H           44.84653472292936       33.17321838774834       30.08325999507488
H           45.14965092924817       33.37147457843523       31.81877321615895
C           42.33619298444383       34.04784272813936       30.10229080199451
O           41.23196191174282       33.61369718475539       30.15367583481266
N           37.67602759667976       31.04228484381559       29.42634234822503
H           37.03513263121421       30.28276642152026       29.66020535545445
C           38.15434215099238       31.61319004482231       30.62940449119527
H           38.90638754650964       32.35212970499371       30.34078123727933
C           37.02151166598374       32.27289448745441       31.45547704056980
H           36.66981499621287       33.14393682498918       30.90105730675426
H           36.20006296933953       31.55439715088868       31.52257296996551
C           37.45592470235997       32.68425443537204       32.84741168536797
H           37.69190944386709       31.79453614798896       33.44003794717003
C           38.67038804994123       33.60427895978530       32.76114157163966
H           38.41105591960077       34.58782904757355       33.15802002728558
H           39.50236685480878       33.24524598753508       33.35373573097562
H           39.00501045036354       33.76968752233221       31.74345451670915
C           36.31908557017749       33.42265939375366       33.53589862350129
H           35.42160983977499       32.80832360543755       33.57706539258876
H           36.61186251793023       33.65944847086810       34.55051172765803
H           36.08716045663588       34.34365826653326       33.00777405187986
C           38.77173090817043       30.58748002114156       31.58637853496759
O           38.27363613489671       29.49640238607057       31.82480430747882
N           39.86208088058352       31.05948114225196       32.19165127995849
H           40.27760385878215       31.91521233107575       31.85645958517316
C           40.63914475910367       30.31045970768162       33.14005556219062
H           40.01825651257944       29.48888150121651       33.50054720522050
C           41.89343319019768       29.80157045597268       32.43090609596017
H           41.60057668854991       29.05301718965543       31.69432976193403
H           42.33800514752420       30.64850053998482       31.90133622816728
C           42.89119892844441       29.23121264851198       33.42697144007258
H           43.09207635868769       30.00479450001260       34.17106331972803
C           42.27980028005930       28.00992391956975       34.11728408527757
H           41.41708610890114       27.65278379552832       33.56328883578043
H           42.98357005274221       27.18614535834575       34.16006611582617
H           41.97646757654606       28.23376996499869       35.13651849730901
C           44.17124495514799       28.89202024635840       32.67024127940303
H           44.59016882172141       29.79141910935079       32.22149706117463
H           44.93062926343389       28.44331559870335       33.29333233541546
H           43.93589191923883       28.19563380929241       31.86731660594752
C           41.00809986979710       31.25940538000759       34.26539710963015
O           41.48459860194427       32.36318082292829       34.00770044194595
N           40.74182032256027       30.83745539771142       35.49717336460587
H           40.43240899680386       29.88507604875483       35.64135942473546
C           40.96184598457965       31.61147629531240       36.69382095553360
H           41.50384040120726       32.51845407453129       36.42684982288513
C           39.63426659732033       31.97212620257842       37.36284526725456
H           39.04365633916034       31.07010330931465       37.45972511009829
H           39.84972485433990       32.34711312224438       38.36903324109215
C           38.87450962333875       33.05197418707962       36.59974412065668
H           39.52366343128593       33.53218882819684       35.87027325045069
H           38.00960640344523       32.62888750576756       36.08356856707212
C           38.38664327534678       34.12891392531701       37.57777646088920
O           38.96643199558629       35.24015185648391       37.53133061298165
O           37.48003607681702       33.83767189725685       38.38140790201545
C           41.72829461717176       30.83492753811608       37.74464318098110
O           41.53035894143922       29.63307267244118       37.90213130921925
N           42.53658968421529       31.57024662624066       38.49161247181032
H           42.68615756621526       32.55272623017047       38.29643262518797
C           43.21942995220212       30.97107257034846       39.60376851055818
H           42.69946898571357       30.02802981029561       39.80859337163403
C           44.69331359062726       30.67319501672920       39.30939993497270
H           45.21889985607034       31.61469414485846       39.13382158257734
H           45.12950949780586       30.17818668909242       40.17613466933343
C           44.71789572716881       29.79803036241053       38.10025534232039
C           44.55660444985587       28.42336289106778       38.21190393624327
H           44.44869471510540       27.98067012849915       39.19010883453647
C           44.57220638836834       27.63022964291659       37.07972081365731
H           44.46568874859333       26.56087908176807       37.16128789865702
C           44.74186316115878       28.22401175879732       35.84148163389278
H           44.85459341559331       27.58161573149219       34.98669694371308
C           44.85602870174372       29.59913794141173       35.71598669557057
H           45.06644519018477       30.06416331424441       34.76868741278202
C           44.82190586307992       30.38438687922973       36.84850617508520
H           44.91766518126416       31.46095191413269       36.77218759176431
C           43.10457180971672       31.93257851047159       40.74207385030376
O           43.36665636318498       33.12549984002471       40.59680857249872
N           42.71735475193917       31.38528228101991       41.88745190542181
H           42.40963184539005       30.42628509957045       41.95699960464034
C           42.42215964762674       32.28421850287165       42.96076662770773
H           43.05095410145741       33.16492949601670       42.80631175910884
C           40.94236502451892       32.73996322970674       42.94569578737414
H           40.33141372129352       31.95467159635293       43.40730640111246
C           40.79897750998447       34.02976749605892       43.73973989368671
H           41.08066851573850       33.88414247800907       44.77994096743893
H           41.42270326066581       34.80707931132140       43.31251563982043
H           39.77198919344473       34.38345982933473       43.70394937784039
C           40.42587297506768       32.95541588506806       41.52522120025058
H           41.06872799767346       33.63531966405620       40.97210806242223
H           40.36158470480792       32.02371832681794       40.96344990892916
H           39.42919797153941       33.39324852326033       41.54704967749244
C           42.75653402166053       31.59033506287502       44.25096217635672
O           42.39225472248579       30.45813767387901       44.52236155307654
N           43.46776106718180       32.35093449744065       45.09314132885114
H           43.78814989757063       33.25618855234942       44.76687861265949
C           43.83396662454145       31.86654160456609       46.39343290687851
H           43.27897324580692       30.92992403707152       46.54649730879029
C           45.38236815727982       31.55101751978712       46.42215916967043
H           45.93402518536747       32.49167037214058       46.33091085246108
C           45.63692778222882       30.85539491288095       47.73465782765308
H           45.35252470573785       31.49943840538158       48.56272958757827
H           45.06813555406382       29.93130855037955       47.79600813780784
H           46.69416347558946       30.61662376733838       47.82974269539047
O           45.72278162574466       30.81380575785555       45.30271639583749
H           45.41102132783148       29.89868059301100       45.39138326060556
C           43.58445662218459       32.84674513970780       47.41140322982238
O           43.50135821340820       33.93781583523349       47.78650730300358
Cu          48.19575182702581       36.71840705272984       38.77492286157966
